-5.972534601328000281e+04
-5.972277732593999826e+04
-5.972150145271999645e+04
-5.972143486706000112e+04
-5.972554142803000286e+04
-5.972578139098000247e+04
-5.972405293715000153e+04
-5.972377020100999653e+04
-5.972683376737000071e+04
-5.972597624165000161e+04
-5.972419150883000111e+04
-5.972193706008000299e+04
-5.972376483122000354e+04
-5.972485691277000296e+04
-5.972214487229000224e+04
-5.972383764628000063e+04
-5.972211041220000334e+04
-5.972392061377000209e+04
-5.972723436724999920e+04
-5.972438228610999795e+04
-5.972659474272000080e+04
-5.972504350271000294e+04
-5.972513384850999864e+04
-5.972562657226000010e+04
-5.972290270921999763e+04
-5.972102658597000118e+04
-5.972115475960999902e+04
-5.972456740123000054e+04
-5.972542240142000082e+04
-5.972501038710000284e+04
-5.972420339886999864e+04
-5.972514397556999756e+04
-5.971961663070000213e+04
-5.972241195372000220e+04
-5.972616885726000328e+04
-5.972527830736999749e+04
-5.972546091367999907e+04
-5.972298053819000052e+04
-5.972475760291999904e+04
-5.972376743592000275e+04
-5.972783177674000035e+04
-5.972332604796999658e+04
-5.972412021236999863e+04
-5.972199268979000044e+04
-5.972721991941000306e+04
-5.972248096986999735e+04
-5.972358908933999919e+04
-5.972553488317000301e+04
-5.972757646524000302e+04
-5.972548461197000142e+04
-5.972124947231000260e+04
-5.972509042238999973e+04
-5.972433259497999825e+04
-5.972614769489999890e+04
-5.972325145096999768e+04
-5.972311560027999803e+04
-5.972529750680000143e+04
-5.972547847008999815e+04
-5.972396340991999750e+04
-5.972404972162999911e+04
-5.972689881990999856e+04
-5.972192891439999948e+04
-5.972598209499999939e+04
-5.972135507928999868e+04
-5.972828914988999895e+04
-5.972605055570999684e+04
-5.972734099212999718e+04
-5.972393245254999783e+04
-5.972146526003000326e+04
-5.971945271184999729e+04
-5.972362388631000067e+04
-5.972392270645999815e+04
-5.972623554857000272e+04
-5.972567628718999913e+04
-5.972431423108000308e+04
-5.972550560173999838e+04
-5.972354536707999796e+04
-5.972712207964000117e+04
-5.971915820913000061e+04
-5.972443162322999706e+04
-5.972598946496000281e+04
-5.972389919817999908e+04
-5.972647530017000099e+04
-5.972748015019999730e+04
-5.972502588690999983e+04
-5.971905382393999753e+04
-5.972299277899000299e+04
-5.972741654566999932e+04
-5.972147346890000335e+04
-5.972644538985999679e+04
-5.972295988414000021e+04
-5.972360451979000209e+04
-5.972379572827999800e+04
-5.972455975764000323e+04
-5.972706215407999844e+04
-5.972331530457999907e+04
-5.972669742085000325e+04
-5.972335211043000163e+04
-5.972196521768000093e+04
-5.972420208927000203e+04
-5.971963797681000142e+04
-5.972446192441000312e+04
-5.972675890901000093e+04
-5.972584448806000000e+04
-5.972536936777999654e+04
-5.972427209543000208e+04
-5.972273006567999983e+04
-5.972419153578999976e+04
-5.972075714021000022e+04
-5.972420940436999808e+04
-5.972096917792000022e+04
-5.972195391940999980e+04
-5.972289991541000200e+04
-5.972143031393999991e+04
-5.972382552854000096e+04
-5.972362344011999812e+04
-5.972654829299000266e+04
-5.972246036687999731e+04
-5.972157045777999883e+04
-5.972611192955000297e+04
-5.972698982542000158e+04
-5.972166372856999806e+04
-5.972494940808999672e+04
-5.972684374129999924e+04
-5.972738839343000291e+04
-5.972302263235000282e+04
-5.972432289907000086e+04
-5.972724083303000225e+04
-5.972704388045999804e+04
-5.972509243925999908e+04
-5.972306107208000321e+04
-5.972226289337000344e+04
-5.972525747755000339e+04
-5.972111444664999726e+04
-5.972647718390000227e+04
-5.972560220862000278e+04
-5.972520948317000148e+04
-5.972466418844999862e+04
-5.972473054750000301e+04
-5.972520613055000285e+04
-5.972585987593000027e+04
-5.972470353859999886e+04
-5.972691947310000251e+04
-5.972647219226000016e+04
-5.972376597598999797e+04
-5.972821401948000130e+04
-5.972611489370000345e+04
-5.972292300422999688e+04
-5.972642512520000309e+04
-5.972239770229999704e+04
-5.972252314489999844e+04
-5.972309398433000024e+04
-5.972669458562000364e+04
-5.972233477813000354e+04
-5.972289189934000024e+04
-5.972642753573999653e+04
-5.972421399573000235e+04
-5.972377403564999986e+04
-5.972581723721999879e+04
-5.972282992031000322e+04
-5.972531901918999938e+04
-5.972536012261999713e+04
-5.972044754331999866e+04
-5.972551977792999969e+04
-5.972389853577000031e+04
-5.972210137532999943e+04
-5.972771888002000196e+04
-5.972412141960000008e+04
-5.972177441309000278e+04
-5.972483336891000363e+04
-5.972284021753999696e+04
-5.972551825806999841e+04
-5.972719158597999922e+04
-5.972322368522000033e+04
-5.972578724199999851e+04
-5.972543093568999757e+04
-5.972448593712999718e+04
-5.972417742244999681e+04
-5.972517791921999742e+04
-5.972431792090000090e+04
-5.972457860698999866e+04
-5.972707098997000139e+04
-5.972442999689000135e+04
-5.972389695706999919e+04
-5.972614806795999903e+04
-5.972715376577000279e+04
-5.972220420498999738e+04
-5.972408286763000069e+04
-5.972673155604999920e+04
-5.972568983989999833e+04
-5.972427328023999871e+04
-5.972487066749000223e+04
-5.972314268473999982e+04
-5.972314690379000240e+04
-5.972522640338000201e+04
-5.972457811603000300e+04
-5.972215324664999935e+04
-5.972309479087000364e+04
-5.972322976724000182e+04
-5.972362983014000201e+04
-5.972497117091000109e+04
-5.972679215996999847e+04
-5.972484354437000002e+04
-5.972750180640000326e+04
-5.972653615061000164e+04
-5.972428222611999809e+04
-5.972250687818000006e+04
-5.972382393043999764e+04
-5.972183792238000024e+04
-5.972555870509999659e+04
-5.971995051665999927e+04
-5.972074317727999733e+04
-5.972145519349999813e+04
-5.972411248381999758e+04
-5.972645942317000299e+04
-5.972107588669999677e+04
-5.972190525956999772e+04
-5.972706416919999901e+04
-5.972110520060999988e+04
-5.972277598256000056e+04
-5.972435779814000125e+04
-5.972302674870999908e+04
-5.972435258068999974e+04
-5.972312073557000258e+04
-5.972200275546999910e+04
-5.972244262940999761e+04
-5.972377542995000113e+04
-5.972299897677999979e+04
-5.972567892251999729e+04
-5.972387512117999722e+04
-5.972619291997999971e+04
-5.972537009630000102e+04
-5.972394410790999973e+04
-5.972481567542000266e+04
-5.972377741629000229e+04
-5.972266958454000269e+04
-5.972654980767000234e+04
-5.972173090852000314e+04
-5.972610024700999929e+04
-5.972281746066999767e+04
-5.972405896082000254e+04
-5.972092171229000087e+04
-5.972677634230999683e+04
-5.972549790288000077e+04
-5.972481855042000097e+04
-5.972617584920000081e+04
-5.972547465615999681e+04
-5.972867896733999805e+04
-5.972341527540999959e+04
-5.972542305764000048e+04
-5.972382646214000124e+04
-5.972216079380000156e+04
-5.972469038287000149e+04
-5.972408163575000071e+04
-5.972567000466999889e+04
-5.972003693432000000e+04
-5.972377684155000316e+04
-5.972462206072000117e+04
-5.972338036878000275e+04
-5.972444932672999857e+04
-5.972450661815000058e+04
-5.972265684601000248e+04
-5.972223628320999705e+04
-5.972691946758000267e+04
-5.972227860728999804e+04
-5.972294997185000102e+04
-5.972650260846000310e+04
-5.972434906929999852e+04
-5.972541702650999650e+04
-5.972504465129000164e+04
-5.972735221705000004e+04
-5.972597583786999894e+04
-5.972467512857999827e+04
-5.972451965462999942e+04
-5.972575159510999947e+04
-5.972538457380000182e+04
-5.972388849037999898e+04
-5.972140822610999749e+04
-5.972601697537000291e+04
-5.972435355595999863e+04
-5.972811605091000092e+04
-5.972415293650000240e+04
-5.972661790155999915e+04
-5.972280113954999979e+04
-5.972715242735000356e+04
-5.972383689089999825e+04
-5.972508734589000233e+04
-5.972354774262000137e+04
-5.972349814252000215e+04
-5.972439656634000130e+04
-5.972449596621000092e+04
-5.972400051897000230e+04
-5.972532710444999975e+04
-5.972376697080000304e+04
-5.972448269117000018e+04
-5.972505059217999951e+04
-5.972217886914999690e+04
-5.972417731862000073e+04
-5.972444227518999833e+04
-5.972432819064999785e+04
-5.972103412009000021e+04
-5.972648449370000162e+04
-5.972630581201000314e+04
-5.972585361548999936e+04
-5.972442585818000225e+04
-5.972215924200000154e+04
-5.972667584992000047e+04
-5.972785472503000346e+04
-5.972769972096000129e+04
-5.972587017200999981e+04
-5.972968478833999689e+04
-5.971948125999000331e+04
-5.972273692912000115e+04
-5.972507538508000289e+04
-5.972150495930999750e+04
-5.972388007854999887e+04
-5.972265010359000007e+04
-5.972347412995999912e+04
-5.972515434005000134e+04
-5.972367872805999650e+04
-5.972787621316999866e+04
-5.972542630974000349e+04
-5.972503787552999711e+04
-5.972595532177999848e+04
-5.972003979719999916e+04
-5.972372776370000065e+04
-5.972435802271000284e+04
-5.972177011810000113e+04
-5.972268641221000144e+04
-5.972425518428000214e+04
-5.972257720525000332e+04
-5.972521353077999811e+04
-5.972487393457999860e+04
-5.972493253315999755e+04
-5.972715173384999798e+04
-5.972670884672999819e+04
-5.972510253416000342e+04
-5.972482733582999936e+04
-5.972591355427999952e+04
-5.972273381374999735e+04
-5.972322670656000264e+04
-5.972561029268000129e+04
-5.972288344009000139e+04
-5.972458950134000042e+04
-5.972497424177000357e+04
-5.972353572621000058e+04
-5.971871157710000261e+04
-5.972236738203999994e+04
-5.972061210669999855e+04
-5.972288556586999766e+04
-5.972549609739999869e+04
-5.972245411990000139e+04
-5.972793087781000213e+04
-5.972543704502999753e+04
-5.972531897063000361e+04
-5.972281307640000159e+04
-5.972096992846999638e+04
-5.972416512071000034e+04
-5.972251183519000188e+04
-5.972309523772000102e+04
-5.972424924653999915e+04
-5.972546949940000195e+04
-5.972706675461999839e+04
-5.972597837735000212e+04
-5.972322227656000177e+04
-5.972350182430999848e+04
-5.972701127580000320e+04
-5.972377708813999925e+04
-5.972320885144000204e+04
-5.972511580492000212e+04
-5.972554538670000329e+04
-5.972667717396999797e+04
-5.972489205716000288e+04
-5.972087631228000100e+04
-5.972199009389000275e+04
-5.972551096208999661e+04
-5.972536357223999948e+04
-5.972467854154999804e+04
-5.972791083554000215e+04
-5.972461169253000116e+04
-5.972476333921000332e+04
-5.972533898141999816e+04
-5.972733390949000022e+04
-5.972344909572000324e+04
-5.972431351223999809e+04
-5.972294825904999743e+04
-5.972609976237000228e+04
-5.972403095149000001e+04
-5.972448348319999786e+04
-5.972371229583999957e+04
-5.972637223603000166e+04
-5.972381342888999643e+04
-5.972482987077000143e+04
-5.972312580603999959e+04
-5.972351727974000096e+04
-5.972590164804999949e+04
-5.972526029420999839e+04
-5.972448561226000311e+04
-5.972469488262000232e+04
-5.972710392029999639e+04
-5.972523999930999707e+04
-5.972517728000000352e+04
-5.972156618962000357e+04
-5.972309492930999841e+04
-5.972512634458999673e+04
-5.972626574899000116e+04
-5.972436503503000131e+04
-5.972214315769999666e+04
-5.972406046174000221e+04
-5.972431855381000059e+04
-5.972051458375000220e+04
-5.972515825803000189e+04
-5.972410484294000344e+04
-5.972574694016000285e+04
-5.972468832870000188e+04
-5.972728688574000262e+04
-5.972410994254999969e+04
-5.972258123378000164e+04
-5.972311528731999715e+04
-5.972163457444000232e+04
-5.972694941647999804e+04
-5.972729060606999701e+04
-5.972598189747000288e+04
-5.972368051522000314e+04
-5.972103412009000021e+04
-5.972451015439999901e+04
-5.972267228864999925e+04
-5.972837325222000072e+04
-5.972272282283000095e+04
-5.972507230076000269e+04
-5.972197620576999907e+04
-5.972428086089999852e+04
-5.972659736128000077e+04
-5.972399656967000192e+04
-5.972723203366999951e+04
-5.972380831690000196e+04
-5.972165646225999808e+04
-5.972199613572000089e+04
-5.972170729526999639e+04
-5.972497566979000112e+04
-5.972049322316000325e+04
-5.972289829322999867e+04
-5.972271425800999714e+04
-5.972633107934000145e+04
-5.972422354500000074e+04
-5.972599859788000322e+04
-5.972268100833000062e+04
-5.972826531583999895e+04
-5.972302574643000116e+04
-5.972671956466000120e+04
-5.972311622198000259e+04
-5.972602036291999684e+04
-5.972130121040000085e+04
-5.972560020480000094e+04
-5.972455326937999780e+04
-5.972372131793999870e+04
-5.972476074879000225e+04
-5.972079959550999774e+04
-5.972386568154999986e+04
-5.972439244186999713e+04
-5.972646859933999804e+04
-5.972688543049000145e+04
-5.972718377542999951e+04
-5.972388359648000187e+04
-5.972532983734000300e+04
-5.972366593054999976e+04
-5.972206954800999665e+04
-5.972406414236999990e+04
-5.972489253260999976e+04
-5.972606070075000025e+04
-5.972233799539999745e+04
-5.972760873659999925e+04
-5.972503030166000099e+04
-5.972392909461000090e+04
-5.972175447564000206e+04
-5.972136499419999745e+04
-5.972404682878000312e+04
-5.972151199695000105e+04
-5.972194327650999912e+04
-5.972316484441999637e+04
-5.972267843592999998e+04
-5.972432102511000267e+04
-5.972322445131999848e+04
-5.972635497323000163e+04
-5.972730737254000269e+04
-5.972618801042000268e+04
-5.972679679777999991e+04
-5.972386380377999740e+04
-5.972305514278999908e+04
-5.972467519185000128e+04
-5.972665523543999734e+04
-5.972560958435000066e+04
-5.972310155132000364e+04
-5.972202218231999723e+04
-5.972301936096999998e+04
-5.972230455832999723e+04
-5.972439749190000293e+04
-5.972326380233000236e+04
-5.972185641847000079e+04
-5.972579131919999782e+04
-5.972595456446999742e+04
-5.972451672156999848e+04
-5.972323371832999692e+04
-5.972454642204999982e+04
-5.972464260528999876e+04
-5.972648405418000038e+04
-5.972479589210999984e+04
-5.972076179371999751e+04
-5.972370640445999743e+04
-5.972427864283000235e+04
-5.972629768601999967e+04
-5.972594451811999897e+04
-5.972359882259999722e+04
-5.972551025897000363e+04
-5.972322873765000259e+04
-5.972679254308999953e+04
-5.972087142887999653e+04
-5.972350614130999747e+04
-5.972656458051999653e+04
-5.972629401967000013e+04
-5.972201899661999778e+04
-5.972634982375999971e+04
-5.972505480014999921e+04
-5.972469570434000343e+04
-5.972325403170999925e+04
-5.972669031669000105e+04
-5.972622675059000176e+04
-5.972590111199999956e+04
-5.972631819066000025e+04
-5.972326178734999849e+04
-5.972440550788999826e+04
-5.972192901310000161e+04
-5.972682858606999798e+04
-5.972270215948999976e+04
-5.972204233866000141e+04
-5.972605521294999926e+04
-5.972449361969999882e+04
-5.971999233108000044e+04
-5.972565926015999867e+04
-5.972865764247000334e+04
-5.972478010434000316e+04
-5.972357718434999697e+04
-5.971066563860000315e+04
-5.972432341481999902e+04
-5.972780981176999921e+04
-5.972472897478000232e+04
-5.972353581801000109e+04
-5.972248828075000347e+04
-5.972428898355999991e+04
-5.972424404271000094e+04
-5.972388001233999967e+04
-5.972621495862000302e+04
-5.972474840894999943e+04
-5.972236112652000156e+04
-5.972263377790000231e+04
-5.972316227326999797e+04
-5.972246779933999642e+04
-5.972610697631000221e+04
-5.972254834316999768e+04
-5.972484300274999987e+04
-5.972591290540000045e+04
-5.972347977602999890e+04
-5.972436067606000142e+04
-5.972629850948000239e+04
-5.972117288240999915e+04
-5.972341277689999697e+04
-5.972747345789999963e+04
-5.972238685717999761e+04
-5.972437926028000220e+04
-5.972507802860999800e+04
-5.972695056438000029e+04
-5.972274180221999995e+04
-5.972523960682000325e+04
-5.972356767112999660e+04
-5.972465905914000177e+04
-5.972248661785999866e+04
-5.972373390543999994e+04
-5.972437476785000035e+04
-5.972183626247999928e+04
-5.972934469009000168e+04
-5.972865113767999719e+04
-5.972201811784999882e+04
-5.972650963565999700e+04
-5.972416622487000132e+04
-5.972251318922000064e+04
-5.972507773347000330e+04
-5.972247135968999646e+04
-5.972465906869000173e+04
-5.972643412007000006e+04
-5.972187750311000127e+04
-5.972288573940000060e+04
-5.972410475579000195e+04
-5.972593003873000271e+04
-5.972341305660999933e+04
-5.972411397736999788e+04
-5.972422871545000089e+04
-5.972275423807000334e+04
-5.972506950890999724e+04
-5.972292317596000066e+04
-5.972499284272999648e+04
-5.972239705636999861e+04
-5.972669182156999887e+04
-5.972662895458999992e+04
-5.972716964670999732e+04
-5.972157900856000197e+04
-5.972511905449999904e+04
-5.972127880454000115e+04
-5.972566967948999809e+04
-5.972527622980000160e+04
-5.972718810946000303e+04
-5.972254163395000069e+04
-5.972328413844999886e+04
-5.972356433860000107e+04
-5.972537970497999777e+04
-5.972262980444000277e+04
-5.972373117703999742e+04
-5.972320350786999916e+04
-5.972139545750999969e+04
-5.973051120531000197e+04
-5.972084537593999994e+04
-5.972731183405999764e+04
-5.972376803133999783e+04
-5.972642305535000196e+04
-5.972376222265000251e+04
-5.971979827533000207e+04
-5.972456903140999930e+04
-5.972468329095000081e+04
-5.972535408098000335e+04
-5.972464092456999788e+04
-5.972361960507999902e+04
-5.972435588999000174e+04
-5.972477993928000069e+04
-5.972851016220999736e+04
-5.972379038133999711e+04
-5.972357198590999906e+04
-5.972283462611999857e+04
-5.972426132979000249e+04
-5.972410796868000034e+04
-5.972347593523000251e+04
-5.972523549061999802e+04
-5.972292283828999643e+04
-5.972218815717999678e+04
-5.972297140229000070e+04
-5.972269284868000250e+04
-5.972724679689999903e+04
-5.972477704734999861e+04
-5.972353682680000202e+04
-5.972550022016999719e+04
-5.972524550777999684e+04
-5.971955129622000095e+04
-5.972332410625999910e+04
-5.972282905852000113e+04
-5.972451631125000131e+04
-5.972547633330999815e+04
-5.972528347557999950e+04
-5.972409147387999838e+04
-5.972103273428999819e+04
-5.972607859527000255e+04
-5.972481203482000274e+04
-5.972811240042999998e+04
-5.972334413935000339e+04
-5.972604849261000345e+04
-5.972871425946000090e+04
-5.972403937202999805e+04
-5.972386486973000137e+04
-5.972217381007000222e+04
-5.972690749343000061e+04
-5.972312482155000180e+04
-5.972000950518000172e+04
-5.972548159195000335e+04
-5.972685286913000164e+04
-5.972476151193999976e+04
-5.972675939417000336e+04
-5.972652535953999904e+04
-5.972250342870000168e+04
-5.972439168447999691e+04
-5.972708731016999809e+04
-5.972202253606000158e+04
-5.972484742854999786e+04
-5.972537041365999903e+04
-5.972317404536999675e+04
-5.972316962913000316e+04
-5.972316214970999863e+04
-5.972671244537999883e+04
-5.972681284420999873e+04
-5.972506094073999702e+04
-5.972486021744000027e+04
-5.972235035850999702e+04
-5.971993733791999693e+04
-5.972717303179000010e+04
-5.972583836195999902e+04
-5.972343889820999902e+04
-5.972247673285999917e+04
-5.972261553193999862e+04
-5.972591251735999685e+04
-5.972425626401999762e+04
-5.972343206995999935e+04
-5.972467255668999860e+04
-5.972812872280000011e+04
-5.972372430208000151e+04
-5.972122222650999902e+04
-5.972381870825000078e+04
-5.972479122117000225e+04
-5.972278851014999964e+04
-5.972351922511999874e+04
-5.972345779618999950e+04
-5.972327791052999964e+04
-5.972152073597999697e+04
-5.972551463302999764e+04
-5.972544346257000143e+04
-5.972567617076000170e+04
-5.972364634782000212e+04
-5.972350709685999755e+04
-5.972495470853999723e+04
-5.972672702261000086e+04
-5.972421489483000187e+04
-5.972188347064000118e+04
-5.972469702307000261e+04
-5.972437861554000119e+04
-5.972454159423000237e+04
-5.972298241666000104e+04
-5.972347118107999995e+04
-5.972498952219000057e+04
-5.972343907580000086e+04
-5.972323454767999647e+04
-5.972378745191000053e+04
-5.972701318031000119e+04
-5.972193142932000046e+04
-5.972461493239000265e+04
-5.972600999869000225e+04
-5.972439405416999944e+04
-5.972277075270999921e+04
-5.972451570073000039e+04
-5.972273464671999682e+04
-5.972544172055999661e+04
-5.972635815364000155e+04
-5.972247902440000325e+04
-5.972504447195999819e+04
-5.972295706808999967e+04
-5.972224430618000042e+04
-5.972558909942000173e+04
-5.972579051615999924e+04
-5.972670645815999887e+04
-5.972250374372000078e+04
-5.970808210785999836e+04
-5.972339625042000262e+04
-5.972967325570999674e+04
-5.972534839626999747e+04
-5.972504687191999983e+04
-5.972166829696000059e+04
-5.972129807876999985e+04
-5.972837422214999970e+04
-5.972036107349999656e+04
-5.972567478403999849e+04
-5.972337212646999978e+04
-5.972513570530000288e+04
-5.972269529475000309e+04
-5.972560161248000077e+04
-5.972389353872000356e+04
-5.972225270551999711e+04
-5.972474758927000221e+04
-5.972381386576999648e+04
-5.972406294062999950e+04
-5.972633785332000116e+04
-5.972062581233999663e+04
-5.972223851378000109e+04
-5.972266163224000047e+04
-5.972845580917000188e+04
-5.972274242866999703e+04
-5.972478816943999846e+04
-5.972535312292000162e+04
-5.972551149373999942e+04
-5.971964029778999975e+04
-5.972510767271999794e+04
-5.972500972057999752e+04
-5.972509037764999812e+04
-5.972205934698999772e+04
-5.972756993838000199e+04
-5.972489263072999893e+04
-5.972271231586999784e+04
-5.972465597230000276e+04
-5.972325416050999775e+04
-5.972624852588999784e+04
-5.972727016105999792e+04
-5.972374601945000177e+04
-5.972345810737000284e+04
-5.972435582945000351e+04
-5.972380449529999896e+04
-5.972273713937999855e+04
-5.972291446182999789e+04
-5.972198907126999984e+04
-5.972639401119000104e+04
-5.972566954901999998e+04
-5.972684312880999641e+04
-5.972396948606999649e+04
-5.972322204153000348e+04
-5.972772560281999904e+04
-5.972324752279999666e+04
-5.972488052980999782e+04
-5.972533766800000012e+04
-5.972109431837999728e+04
-5.972508845943000051e+04
-5.972453579185999843e+04
-5.972317136557999766e+04
-5.972570211112999823e+04
-5.972563749403000111e+04
-5.972243151154000225e+04
-5.972748355681000248e+04
-5.972740034443000332e+04
-5.972548655577000318e+04
-5.972339005586999701e+04
-5.972193534717999864e+04
-5.972647219724000024e+04
-5.972685401393999928e+04
-5.972269081572999858e+04
-5.972525716331000149e+04
-5.972521465557999909e+04
-5.972056410663000133e+04
-5.972514058459000080e+04
-5.972496839026000089e+04
-5.972482560491999902e+04
-5.972320981682999991e+04
-5.972494067776000156e+04
-5.972254248904999986e+04
-5.972528125443000317e+04
-5.972625210992000211e+04
-5.972596243595999840e+04
-5.972056445676000294e+04
-5.972774885262000316e+04
-5.972269401143999858e+04
-5.972412769824000134e+04
-5.972526207535000140e+04
-5.972537412138999935e+04
-5.972303751845000079e+04
-5.972444560967999860e+04
-5.972324319819000084e+04
-5.972441346769999654e+04
-5.972482928854000056e+04
-5.972398360703999788e+04
-5.972372945268000331e+04
-5.972677380101000017e+04
-5.972038784250000026e+04
-5.972307603555000242e+04
-5.972632549126000231e+04
-5.972474311229000159e+04
-5.972404160891000356e+04
-5.972455877861999761e+04
-5.972694027574999927e+04
-5.972311723263999738e+04
-5.972275828763999743e+04
-5.972522671116000129e+04
-5.972061350356000185e+04
-5.972575533420000284e+04
-5.972246618881999893e+04
-5.972300099793000118e+04
-5.972564395361000061e+04
-5.972588492984000186e+04
-5.972453311204999773e+04
-5.972343843478000053e+04
-5.972329458711000188e+04
-5.972679345063000073e+04
-5.972715177982999739e+04
-5.972355876053999964e+04
-5.972253406672999699e+04
-5.972500856139000098e+04
-5.972258493710000039e+04
-5.972412723235000158e+04
-5.971258710391999921e+04
-5.972357668908999767e+04
-5.972325555865000206e+04
-5.972356559510999796e+04
-5.972272019729000021e+04
-5.972473678913000185e+04
-5.972520088370000303e+04
-5.972351100728000165e+04
-5.972583802635999746e+04
-5.972328573655000218e+04
-5.972762654917000327e+04
-5.972423845271999744e+04
-5.972336661589999858e+04
-5.972676450853999995e+04
-5.972517096013999981e+04
-5.972329937913000322e+04
-5.972181918333999783e+04
-5.972456270789999689e+04
-5.972398242379000294e+04
-5.972412218284999835e+04
-5.972548043062000215e+04
-5.972666104218999681e+04
-5.972243140380999830e+04
-5.972416851003000193e+04
-5.972337320095999894e+04
-5.972479960377999669e+04
-5.972207381773000088e+04
-5.972113597340999695e+04
-5.972367154540999763e+04
-5.972662516363000032e+04
-5.972655002521999995e+04
-5.972157259494000027e+04
-5.972399919793000299e+04
-5.972781532796000101e+04
-5.972536918952000269e+04
-5.972503817331999744e+04
-5.972501129740999750e+04
-5.972602019858000131e+04
-5.972578005862999998e+04
-5.972658932295999693e+04
-5.972344489916999737e+04
-5.972665594417999819e+04
-5.972894191120000323e+04
-5.972180203938000341e+04
-5.972263641479999933e+04
-5.972453639030000340e+04
-5.972573191763999785e+04
-5.972280549266999878e+04
-5.972422816875999706e+04
-5.972424921699999686e+04
-5.972579417554000247e+04
-5.972537133704999724e+04
-5.972767149442999653e+04
-5.972329707695000252e+04
-5.972490575769999850e+04
-5.972380466830999649e+04
-5.972143694023999706e+04
-5.972546256169999833e+04
-5.972504857130000164e+04
-5.972354863540000224e+04
-5.972010432040000160e+04
-5.972652635004000331e+04
-5.972209138926999731e+04
-5.972416435952000029e+04
-5.972308942558999843e+04
-5.972403871639999852e+04
-5.972486914003000129e+04
-5.972606246478999674e+04
-5.972490730117999919e+04
