-5.972184139002000302e+04
-5.972230874752999807e+04
-5.972479666466000344e+04
-5.972426333716000227e+04
-5.972127880454000115e+04
-5.972182314290999784e+04
-5.972105657655999676e+04
-5.972404721573000279e+04
-5.972498571028999868e+04
-5.972432102511000267e+04
-5.972797229784000228e+04
-5.972477545455999643e+04
-5.972670699038999737e+04
-5.972614538441000332e+04
-5.972058429092000006e+04
-5.972357250989999739e+04
-5.972361637242000143e+04
-5.971877153115999681e+04
-5.971750413211999694e+04
-5.972346213136000006e+04
-5.972625811694999720e+04
-5.972073267997999938e+04
-5.972337654551999731e+04
-5.972565336453000054e+04
-5.972308896131000074e+04
-5.971898313587000303e+04
-5.972656073142000241e+04
-5.972447783001000062e+04
-5.972195455752000271e+04
-5.972386986597000214e+04
-5.972145101792999776e+04
-5.972546980063999945e+04
-5.972558129976000055e+04
-5.972549680290000106e+04
-5.972233295666000049e+04
-5.971930840817999706e+04
-5.972405748817000131e+04
-5.972408289253999828e+04
-5.972294952567000291e+04
-5.972274567804000253e+04
-5.972147784223000053e+04
-5.972384458635999908e+04
-5.972689561667999806e+04
-5.972412510116000340e+04
-5.972503464145000180e+04
-5.972473892969000008e+04
-5.972281814776000101e+04
-5.972208087150000210e+04
-5.972246400213999732e+04
-5.972245155876000354e+04
-5.972377412917000038e+04
-5.972518429576000199e+04
-5.972021651987000223e+04
-5.972133022145999712e+04
-5.972055252391999966e+04
-5.972442140335000295e+04
-5.972478565841000091e+04
-5.972074484988999757e+04
-5.972249721681999654e+04
-5.972533206632999645e+04
-5.972359011907999957e+04
-5.972162555337000231e+04
-5.972288163830999838e+04
-5.972251270420000219e+04
-5.972013297772000078e+04
-5.972435482256000250e+04
-5.972475104580000334e+04
-5.972380993676999788e+04
-5.972290782993000175e+04
-5.972046784943999955e+04
-5.972162337994999689e+04
-5.972552430920999905e+04
-5.972430721743000322e+04
-5.972037042634999671e+04
-5.972211448609999934e+04
-5.972479915463000361e+04
-5.971930075021999801e+04
-5.972113619627000298e+04
-5.972239017176999914e+04
-5.972433954251999967e+04
-5.972606708095000067e+04
-5.972604555947000335e+04
-5.972795649427000171e+04
-5.972369228165999812e+04
-5.972540338611000334e+04
-5.972571429817999888e+04
-5.972380923114000325e+04
-5.972347977602999890e+04
-5.972465285014000256e+04
-5.972389713980999659e+04
-5.972341702526000154e+04
-5.972507538508000289e+04
-5.972391440085999784e+04
-5.972424696745999972e+04
-5.972611101865999808e+04
-5.972381743298999936e+04
-5.972411869571999705e+04
-5.972708608536000247e+04
-5.972175015097999858e+04
-5.972565121230999648e+04
-5.972104174287999922e+04
-5.972244464732000051e+04
-5.972033687780000037e+04
-5.972608356318000006e+04
-5.971875365445000352e+04
-5.972830661900999985e+04
-5.972437709083999653e+04
-5.972391787299999851e+04
-5.972741752842999995e+04
-5.972745586408999952e+04
-5.972561136655999871e+04
-5.972827558141999907e+04
-5.972354160551999666e+04
-5.972378556699000183e+04
-5.972504650625999784e+04
-5.972222875981000107e+04
-5.972396093310000288e+04
-5.972567621956999938e+04
-5.972236463149000338e+04
-5.972307530948000203e+04
-5.972396914967000339e+04
-5.972423215714000253e+04
-5.972374601981000160e+04
-5.972577958360000048e+04
-5.972516744800000015e+04
-5.972438604635999945e+04
-5.972162135999000020e+04
-5.972812946979999833e+04
-5.972590398275000189e+04
-5.972154756933000317e+04
-5.972384858096000244e+04
-5.972308024581999780e+04
-5.972232308839000325e+04
-5.971889329883999744e+04
-5.972226701144999970e+04
-5.972505046929999662e+04
-5.972642273520000163e+04
-5.972107092889000342e+04
-5.972516435975999775e+04
-5.972335271415000170e+04
-5.972283462611999857e+04
-5.972106750435000140e+04
-5.972262155031000293e+04
-5.972436348472999816e+04
-5.972317114051999670e+04
-5.971765718177999952e+04
-5.972465016964000097e+04
-5.972794478656000138e+04
-5.972023972518999653e+04
-5.972375538046000293e+04
-5.972362344011999812e+04
-5.972358907038000325e+04
-5.972156659580000269e+04
-5.972038778712999920e+04
-5.972046160383000097e+04
-5.972532914339999843e+04
-5.972783863533000113e+04
-5.972351753733999794e+04
-5.972715540652000345e+04
-5.972552483770000254e+04
-5.972080832255999849e+04
-5.972196775285000331e+04
-5.972494492377999995e+04
-5.972338643530999980e+04
-5.972483910484999797e+04
-5.972436910660000285e+04
-5.972300251017000119e+04
-5.972484300274999987e+04
-5.972725940319000074e+04
-5.972502340310999716e+04
-5.972307902042000205e+04
-5.972390688193000096e+04
-5.972409680566000316e+04
-5.972738510924000002e+04
-5.972784566574000200e+04
-5.972540265691999957e+04
-5.972202236186999653e+04
-5.972539230515000236e+04
-5.972306197583000176e+04
-5.972361290210999869e+04
-5.971847104515999672e+04
-5.972062845094999648e+04
-5.972503575984999770e+04
-5.972016885598999943e+04
-5.972621065593000094e+04
-5.972135973386000114e+04
-5.972322102196000196e+04
-5.972307603555000242e+04
-5.971857295786999748e+04
-5.972489935847000015e+04
-5.972160131821999676e+04
-5.972391829205000249e+04
-5.972185515268999734e+04
-5.972360949874999642e+04
-5.972243416923000041e+04
-5.972242337099999713e+04
-5.972170592773999670e+04
-5.972029632896000112e+04
-5.972188718173999951e+04
-5.972286732833000133e+04
-5.972300774474000355e+04
-5.972428029706000234e+04
-5.972498000294999656e+04
-5.972509080320000066e+04
-5.972299277899000299e+04
-5.971506127567999647e+04
-5.972296376443999907e+04
-5.972059872688999894e+04
-5.972367761598999641e+04
-5.972358452804999979e+04
-5.972442585818000225e+04
-5.972314474504999816e+04
-5.972414477589000307e+04
-5.972254558084000018e+04
-5.972312731869999698e+04
-5.972623169346000213e+04
-5.972142862669000169e+04
-5.972406252890999895e+04
-5.972070515500000329e+04
-5.972309704210000200e+04
-5.972406054653000319e+04
-5.972577809639000043e+04
-5.972446824614000070e+04
-5.971948125999000331e+04
-5.972193556024000281e+04
-5.972512856284999725e+04
-5.972596692179999809e+04
-5.972773185861000093e+04
-5.972345080255000357e+04
-5.971989220228000340e+04
-5.972394249985000351e+04
-5.972418821018999733e+04
-5.972549832759000128e+04
-5.972158472076999897e+04
-5.972404022024000005e+04
-5.972542242581000028e+04
-5.972368593913999939e+04
-5.972337166034000256e+04
-5.972648070949000248e+04
-5.972391250440000294e+04
-5.972606688084999769e+04
-5.972703666625000187e+04
-5.972495957802000339e+04
-5.972569154926000192e+04
-5.971909896611000295e+04
-5.972362574735000089e+04
-5.972113631300999987e+04
-5.972854413719999866e+04
-5.972274612507999700e+04
-5.972080961535000097e+04
-5.972452549816000101e+04
-5.972559171010000136e+04
-5.971942769491000217e+04
-5.972225270551999711e+04
-5.972611644630000228e+04
-5.972326555753000139e+04
-5.972063648185999773e+04
-5.972762530903000152e+04
-5.972506324429999950e+04
-5.972521505844000058e+04
-5.972592527621999761e+04
-5.972103273428999819e+04
-5.972290425015000073e+04
-5.972445800377999694e+04
-5.972164172507000330e+04
-5.972509978050999780e+04
-5.972380449529999896e+04
-5.972143486706000112e+04
-5.972132321123000293e+04
-5.972452325903000019e+04
-5.972276961409999785e+04
-5.972111197384999832e+04
-5.972439751442999841e+04
-5.972575364034000086e+04
-5.972558372804999817e+04
-5.972030814790000295e+04
-5.972593199964000087e+04
-5.972571175321999908e+04
-5.972262903881000238e+04
-5.972466117713999847e+04
-5.972357793857999786e+04
-5.972591764808000153e+04
-5.972289788152999972e+04
-5.972508735344000161e+04
-5.972109008092000295e+04
-5.971562257903000136e+04
-5.972903759027000342e+04
-5.972143001407999691e+04
-5.972568671424999775e+04
-5.972193211092000274e+04
-5.972580596101999981e+04
-5.972573974116000318e+04
-5.972242686770000000e+04
-5.972506688094000128e+04
-5.972474997966000228e+04
-5.972259596951000276e+04
-5.972381342888999643e+04
-5.972404551091999747e+04
-5.972827986083999713e+04
-5.972658805235999898e+04
-5.972383737634999852e+04
-5.972231417040999804e+04
-5.972271010805999686e+04
-5.972281158788000175e+04
-5.972498072561000299e+04
-5.972035610705999716e+04
-5.972146785390999867e+04
-5.972356911905999732e+04
-5.972422669673999917e+04
-5.972173091923999891e+04
-5.972226660067999910e+04
-5.972233115821999672e+04
-5.971817053547000251e+04
-5.972564030756000284e+04
-5.971707941384999867e+04
-5.972496754469000007e+04
-5.972302881124999840e+04
-5.972712171292000130e+04
-5.972262589781999850e+04
-5.972360357290999673e+04
-5.972358183999000175e+04
-5.972289261665999948e+04
-5.972686668972999905e+04
-5.972355514386000141e+04
-5.972286327496999729e+04
-5.972515228413000295e+04
-5.972476024080000207e+04
-5.972176033527999971e+04
-5.972307228172000032e+04
-5.971974975722000090e+04
-5.972111418499000138e+04
-5.972524611670999730e+04
-5.972584663769000326e+04
-5.972537616485999752e+04
-5.972360489680000319e+04
-5.972515879516000132e+04
-5.971685335856000165e+04
-5.971807350951999979e+04
-5.972204277490000095e+04
-5.972323075105000316e+04
-5.972291463995000231e+04
-5.972124059727999702e+04
-5.972119852920999983e+04
-5.972017879984000319e+04
-5.971688288253000064e+04
-5.972496903865999775e+04
-5.972275167381999927e+04
-5.972129503688999830e+04
-5.972507359646999976e+04
-5.972434506548000354e+04
-5.972481102220000321e+04
-5.972304009960000258e+04
-5.971969621323000320e+04
-5.972489147529999900e+04
-5.972537617016000149e+04
-5.972218930774999899e+04
-5.972085447833999933e+04
-5.972613631216999784e+04
-5.972321875089000241e+04
-5.972412964880000072e+04
-5.972391156375999708e+04
-5.972438295957000082e+04
-5.972518573561000085e+04
-5.972178543735000130e+04
-5.972341638403000252e+04
-5.972058300404000329e+04
-5.972318224573000043e+04
-5.972446533251999790e+04
-5.972617702917999850e+04
-5.972312553384999774e+04
-5.972064535559000069e+04
-5.972244535840000026e+04
-5.972445097030000034e+04
-5.972034047409000050e+04
-5.972445442935999745e+04
-5.972626811981000355e+04
-5.971916239936999773e+04
-5.972324753018999763e+04
-5.972344575549000001e+04
-5.972552558072999818e+04
-5.972245412973000202e+04
-5.970881096290000278e+04
-5.972618962071999704e+04
-5.972438656720000290e+04
-5.972125330879000103e+04
-5.972254522721000103e+04
-5.972736294110999734e+04
-5.972488296747999993e+04
-5.972333873802000016e+04
-5.972370231559000240e+04
-5.972694651075000002e+04
-5.972206824875999882e+04
-5.972477131507000013e+04
-5.972354510332999780e+04
-5.972297811248999642e+04
-5.972431603419999738e+04
-5.972269347130000097e+04
-5.972859994793000078e+04
-5.972266870703000313e+04
-5.972481461133000266e+04
-5.972406702598000265e+04
-5.972506244025000342e+04
-5.972331068106999737e+04
-5.972790154487999826e+04
-5.972657452953999746e+04
-5.972379301542000030e+04
-5.972297653872000228e+04
-5.972291566168000281e+04
-5.971970890995000082e+04
-5.972291361899999902e+04
-5.972196521768000093e+04
-5.972479995493999741e+04
-5.972696110056000180e+04
-5.972306256913999823e+04
-5.972253865349000262e+04
-5.972781635567999911e+04
-5.972411191937999683e+04
-5.972345191257000261e+04
-5.972656371948999731e+04
-5.972509297643999889e+04
-5.972432661085000291e+04
-5.971889056926000194e+04
-5.972422480214000097e+04
-5.972275192806000268e+04
-5.972325544061999972e+04
-5.972517554122000001e+04
-5.972547318801999791e+04
-5.972428832076999970e+04
-5.972095338094999897e+04
-5.972168046642999980e+04
-5.972420073515999684e+04
-5.972216931895999733e+04
-5.972073981225000171e+04
-5.972582496738000191e+04
-5.971998680980000063e+04
-5.972183645588000218e+04
-5.972657853055000305e+04
-5.971895898188000137e+04
-5.972193706586999906e+04
-5.972278627920000145e+04
-5.972367198813000141e+04
-5.972242343450999761e+04
-5.972221267418000207e+04
-5.972591224887000135e+04
-5.972705883193000045e+04
-5.972176432345999638e+04
-5.972027424843000335e+04
-5.972272933762000321e+04
-5.972452262753000105e+04
-5.972481021070000133e+04
-5.972434290057000180e+04
-5.972387815827000304e+04
-5.972381082964000234e+04
-5.972421946904999641e+04
-5.972189187387000129e+04
-5.972217408538999734e+04
-5.972485784560000320e+04
-5.971880949205000070e+04
-5.972437874058000307e+04
-5.972651271124999766e+04
-5.972593869329000154e+04
-5.972588101922000351e+04
-5.971848009350000211e+04
-5.972695511870000337e+04
-5.972337866395000310e+04
-5.972232830894999643e+04
-5.972134501222999825e+04
-5.972320734533000359e+04
-5.972354830457000207e+04
-5.972674105334000342e+04
-5.972292223897999793e+04
-5.972635873929999798e+04
-5.972112549164999655e+04
-5.972065110635000019e+04
-5.972674222960000043e+04
-5.972326140753000072e+04
-5.972440554023000004e+04
-5.972135748864999914e+04
-5.972325465073999658e+04
-5.972512512804000289e+04
-5.972648330133999843e+04
-5.972488524162999965e+04
-5.972219048507999833e+04
-5.972352992415000335e+04
-5.972510609726000257e+04
-5.972312063553000189e+04
-5.972464289449000353e+04
-5.972302186405999964e+04
-5.971985622141000204e+04
-5.972336037993000355e+04
-5.972267360442000063e+04
-5.972582945817000291e+04
-5.971986801407999883e+04
-5.972523920337000163e+04
-5.972129807876999985e+04
-5.972153122769999754e+04
-5.972480197103999672e+04
-5.972227898431000358e+04
-5.972218469108999852e+04
-5.972377284448999853e+04
-5.972501556189999974e+04
-5.972449596621000092e+04
-5.972236975301000348e+04
-5.972382568480999907e+04
-5.972449718302000110e+04
-5.972312343054999656e+04
-5.971592834818000119e+04
-5.971899564069999906e+04
-5.972347745581000345e+04
-5.972669631346999813e+04
-5.971736270594999951e+04
-5.972595412611000211e+04
-5.972413785831000132e+04
-5.972459703527999955e+04
-5.972250799515000108e+04
-5.972359698424999806e+04
-5.972481968518000212e+04
-5.972328812566000124e+04
-5.972521561988999747e+04
-5.972281617816999642e+04
-5.972430473050999717e+04
-5.972421243503999722e+04
-5.972361438477999764e+04
-5.972560175719999825e+04
-5.972236215056999936e+04
-5.972301744784000039e+04
-5.972274660885999765e+04
-5.972283648512000218e+04
-5.972428026317000331e+04
-5.972551775025000097e+04
-5.971952331234000303e+04
-5.971459854087999702e+04
-5.972351267624000320e+04
-5.972305127517999790e+04
-5.972617658413000026e+04
-5.972178205716999946e+04
-5.972575178797000262e+04
-5.972355877966000116e+04
-5.972566608738999639e+04
-5.972270437878999655e+04
-5.972799438602000009e+04
-5.972179208792000281e+04
-5.972353492315999756e+04
-5.972110809359000268e+04
-5.972664124532999995e+04
-5.972288241153999843e+04
-5.972127268770999945e+04
-5.971132875064000109e+04
-5.972638279704999877e+04
-5.972063187509000272e+04
-5.972286087335999764e+04
-5.972384067535000213e+04
-5.972440943916999822e+04
-5.972393806580999808e+04
-5.972498241458999837e+04
-5.972460214976000134e+04
-5.972075977448000049e+04
-5.972541161694000039e+04
-5.972589633707000030e+04
-5.971716478076000203e+04
-5.972105029030999867e+04
-5.972615689764999843e+04
-5.972393232606999663e+04
-5.972453863799999817e+04
-5.971640032878999773e+04
-5.972285512010999810e+04
-5.972370733425999788e+04
-5.972026920010000322e+04
-5.972048637779000273e+04
-5.972668477413999790e+04
-5.971905300410999916e+04
-5.972295811143999890e+04
-5.971946456978999777e+04
-5.972022897692999686e+04
-5.972144642097000178e+04
-5.972429895823999686e+04
-5.972210853936000058e+04
-5.972359824828999990e+04
-5.972708514075999847e+04
-5.972083568293999997e+04
-5.972351826294999773e+04
-5.972322477862999949e+04
-5.972645388434999768e+04
-5.971338479655999981e+04
-5.972281481915999757e+04
-5.972337329974000022e+04
-5.972447684750999906e+04
-5.972426890052999806e+04
-5.972426816983000026e+04
-5.971935950407000200e+04
-5.972357022233000316e+04
-5.972272683898000105e+04
-5.972380303825999727e+04
-5.971799027668999770e+04
-5.972466623812000034e+04
-5.972450410194000142e+04
-5.972946147748999647e+04
-5.972159396803999698e+04
-5.972079288816000189e+04
-5.972364653148999787e+04
-5.972181794950000040e+04
-5.972262550103000103e+04
-5.972663197562999994e+04
-5.971934211217000120e+04
-5.972743077428999823e+04
-5.972591911576999701e+04
-5.971738466922000225e+04
-5.972564721889999782e+04
-5.972411272710999765e+04
-5.972205408752999938e+04
-5.972672644025999762e+04
-5.972336216067000350e+04
-5.971844363169999997e+04
-5.972444051244999719e+04
-5.972089541396999994e+04
-5.971706604964000144e+04
-5.972517841911000141e+04
-5.972052120991999982e+04
-5.972216423067999858e+04
-5.972096917792000022e+04
-5.972691301815000043e+04
-5.972012839528000040e+04
-5.972388020390999736e+04
-5.972142584407999675e+04
-5.972551217134999752e+04
-5.972446945933999814e+04
-5.972036324212999898e+04
-5.972224768400000175e+04
-5.972344472810000298e+04
-5.972435112120000122e+04
-5.972431923652999831e+04
-5.972201899661999778e+04
-5.972006703802000266e+04
-5.972750195070000336e+04
-5.971990926556000340e+04
-5.972266392038000049e+04
-5.972476582267000049e+04
-5.972190261088999978e+04
-5.972463269194999884e+04
-5.972041392081000231e+04
-5.972193705336999847e+04
-5.972547828745999868e+04
-5.972430742163999821e+04
-5.972163121783999668e+04
-5.972223347898999782e+04
-5.972418460716999834e+04
-5.972352119895000214e+04
-5.972557398472999921e+04
-5.972330579466999916e+04
-5.972389742069999920e+04
-5.972180144442000164e+04
-5.971940949813999759e+04
-5.972310127176999958e+04
-5.972292011272999662e+04
-5.972372879136000120e+04
-5.972232085920000100e+04
-5.972514696938999987e+04
-5.972302574643000116e+04
-5.972250137871000334e+04
-5.972173445157000242e+04
-5.972374251737000304e+04
-5.972629443837999861e+04
-5.972367154540999763e+04
-5.972368495899999834e+04
-5.972309850433000247e+04
-5.972520688133999647e+04
-5.972595859881999786e+04
-5.972480405767000047e+04
-5.972027631506999751e+04
-5.972602481069000351e+04
-5.972425928715999908e+04
-5.972314690379000240e+04
-5.972297893830999965e+04
-5.972543740766999690e+04
-5.972419150883000111e+04
-5.972440966915999888e+04
-5.972652847918000043e+04
-5.972331400320999819e+04
-5.972387977644000057e+04
-5.972434865724999690e+04
-5.972208431448000192e+04
-5.972788526116999856e+04
-5.972081642979000026e+04
-5.972254243870000209e+04
-5.972423913195999921e+04
-5.972117215541000041e+04
-5.972126810721999937e+04
-5.972123854391000350e+04
-5.972502293189999909e+04
-5.971991763905999687e+04
-5.972052371855999809e+04
-5.972270864540999901e+04
-5.972113202255999931e+04
-5.972232645069999853e+04
-5.972445529150999937e+04
-5.972523414377999870e+04
-5.972193955098000151e+04
-5.972353922150000290e+04
-5.971902374496999983e+04
-5.972488100772000325e+04
-5.972285207015999913e+04
-5.972662430792999658e+04
-5.972451916096999776e+04
-5.971912853894000000e+04
-5.972280794708000030e+04
-5.972316740482000023e+04
-5.972334350028000335e+04
-5.972494903096999769e+04
-5.972412034745999699e+04
-5.972156784987999708e+04
-5.972342559078000340e+04
-5.972127657719999843e+04
-5.972039880152999831e+04
-5.972326770950000355e+04
-5.972228168952999840e+04
-5.972183626247999928e+04
-5.972220531456000026e+04
-5.972357929242999671e+04
-5.972591251735999685e+04
-5.972244004755999777e+04
-5.972505876710000302e+04
-5.972199326496000140e+04
-5.972128348327999993e+04
-5.972270877247000317e+04
-5.972318171370000346e+04
-5.972152309070000047e+04
-5.972592527623000205e+04
-5.972341173862000142e+04
-5.972131881229000282e+04
-5.972493209088999720e+04
-5.972392995389999851e+04
-5.972460503500000050e+04
-5.972392466897000122e+04
-5.972518379118000303e+04
-5.972346288949999871e+04
-5.972389065983999899e+04
-5.972392864959999861e+04
-5.972228880413000297e+04
-5.972224997868000355e+04
-5.972373598871000286e+04
-5.972611851667000155e+04
-5.972492463645999669e+04
-5.972689103982999950e+04
-5.972063479856000049e+04
-5.971900336440999672e+04
-5.972571553431000211e+04
-5.972516260450999835e+04
-5.972323850020999816e+04
-5.972029152931999852e+04
-5.972536937665999722e+04
-5.971805081478999637e+04
-5.972333899389999715e+04
-5.972387313315999927e+04
-5.972480052846000035e+04
-5.972151171751999937e+04
-5.972274933774000237e+04
-5.972398164530999929e+04
-5.972493357860000106e+04
-5.972392812759999651e+04
-5.972428043015999720e+04
-5.971605664863999846e+04
-5.972235211569000239e+04
-5.972482345032999729e+04
-5.972434906929999852e+04
-5.971521656141999847e+04
-5.972546840011000313e+04
-5.972401294731999951e+04
-5.972526029420999839e+04
-5.972452116112999647e+04
-5.972179177278999850e+04
-5.972452139830999658e+04
-5.972536815319999732e+04
-5.972444978853999783e+04
-5.972078440607000084e+04
-5.972269334707999951e+04
-5.971668957632000092e+04
-5.972221635776000039e+04
-5.972684565073999693e+04
-5.972286033173999749e+04
-5.972289742187000229e+04
-5.972024752756999806e+04
-5.972380571654000232e+04
-5.971483472015999723e+04
-5.972314714539999841e+04
-5.972157433060000039e+04
-5.972433381794999877e+04
-5.972342781192999973e+04
-5.972415779122999811e+04
-5.972271895775000303e+04
-5.972588594670999737e+04
-5.972500234423000074e+04
-5.972088291505000234e+04
-5.972331211697999970e+04
-5.972241212942999846e+04
-5.972145328059999883e+04
-5.971985012327000004e+04
-5.972136596583000210e+04
-5.972308686784999736e+04
-5.971778549373999704e+04
-5.972508291944999655e+04
-5.972382591569000215e+04
-5.972355251439000131e+04
-5.972666302261000237e+04
-5.972061141681000299e+04
-5.972297860198000126e+04
-5.972149760683000204e+04
-5.972069693571000244e+04
-5.971619782316000055e+04
-5.972442172828000184e+04
-5.972782101608000085e+04
-5.971971814094000001e+04
-5.972468365605999861e+04
-5.972236936922000314e+04
-5.972380500880999898e+04
-5.972090487518000009e+04
-5.972345538859999942e+04
-5.972284890360000281e+04
-5.972481171077000181e+04
-5.972447676687999774e+04
-5.972675519668999914e+04
-5.972745732986000075e+04
-5.972525959360999695e+04
-5.972632075677000103e+04
-5.972164078203999816e+04
-5.972209485526000208e+04
-5.972085059072999866e+04
-5.972032639467000263e+04
-5.972385375645999738e+04
-5.972212106096000207e+04
-5.972471580625999923e+04
-5.972529870702000335e+04
-5.972564411770999868e+04
-5.972168721342999925e+04
-5.972434069114999875e+04
-5.972162096554999880e+04
-5.972606877586000337e+04
-5.972715220506000333e+04
-5.972553265467999881e+04
-5.972656279060999805e+04
-5.972231325390999700e+04
-5.972725152184999752e+04
-5.972363325818999874e+04
-5.972364634782000212e+04
-5.972393767801999638e+04
-5.972589743971999997e+04
-5.970928556846999709e+04
-5.972484742854999786e+04
-5.972428538924999884e+04
-5.972374120745999971e+04
-5.972430835385999671e+04
-5.971954403286999877e+04
-5.972299892022000131e+04
-5.972187059276999935e+04
-5.972594980593000219e+04
-5.972444922786999814e+04
-5.972426507472000230e+04
-5.972316540802999953e+04
-5.972304677085999720e+04
-5.972544386249999661e+04
-5.972455516093000188e+04
-5.972157386324999970e+04
-5.972431942128999799e+04
-5.972706111943999713e+04
-5.972459033885000099e+04
-5.972295686202999786e+04
-5.972539669046999916e+04
-5.972396237002999987e+04
-5.971995051665999927e+04
-5.972430218695000076e+04
-5.972327767329000199e+04
-5.972257537317000242e+04
-5.972054886989000079e+04
-5.972780849021999893e+04
-5.972122470377999707e+04
-5.972365295971999876e+04
-5.972201833079000062e+04
-5.972382460908999929e+04
-5.972496803725000063e+04
-5.972534369775999949e+04
-5.972368867935999879e+04
-5.972839382810000097e+04
-5.972526307976999669e+04
-5.972289418083999772e+04
-5.972448317071999918e+04
-5.972154023605999828e+04
-5.972177204173000064e+04
-5.972182083057000273e+04
-5.972109718769999745e+04
-5.972481143775000237e+04
-5.971908899833999749e+04
-5.972140616962999775e+04
-5.972608300233999762e+04
-5.972252314489999844e+04
-5.971341879845999938e+04
-5.972089982536000025e+04
-5.972579145373000210e+04
-5.972575184623999667e+04
-5.972351881062999746e+04
-5.971855495836000046e+04
-5.972278460941999947e+04
-5.972647530017000099e+04
-5.972103728414999932e+04
-5.972568925155000034e+04
-5.972352825288999884e+04
-5.972305521671000315e+04
-5.971965576092000265e+04
-5.972255019064999942e+04
-5.972455129822999879e+04
-5.972547465615999681e+04
-5.972592215156000020e+04
-5.972472964613999648e+04
-5.972393911982999998e+04
-5.972487357735999831e+04
-5.972613627514999826e+04
-5.972553395476000151e+04
-5.972487927822000347e+04
-5.972254630943999655e+04
-5.972069905945000210e+04
-5.972000950518000172e+04
-5.972485294317000080e+04
-5.972271573014000023e+04
-5.972778742541999964e+04
-5.972634003844000108e+04
-5.972347262254999805e+04
-5.972430248502000177e+04
-5.972308735814999818e+04
-5.972360564988000260e+04
-5.972481837041999825e+04
-5.972205031517000316e+04
-5.972386707126999681e+04
-5.972348091058000136e+04
-5.972264995715999976e+04
-5.972597200906999933e+04
-5.972244626868000341e+04
-5.972228753978000168e+04
-5.972586833045000094e+04
-5.972470066216999840e+04
-5.972221189279000100e+04
-5.972281658595999761e+04
