-5.972350354279000021e+04
-5.972575918619999720e+04
-5.971395146635999845e+04
-5.972735702709000179e+04
-5.972465474882000126e+04
-5.972300434680999751e+04
-5.972039135279999755e+04
-5.972353755834999902e+04
-5.972591962680000142e+04
-5.972254444291999971e+04
-5.972326126438000210e+04
-5.972209377856000356e+04
-5.972415046196999901e+04
-5.972272469465999893e+04
-5.972350333972000226e+04
-5.972080652941000153e+04
-5.972478238093999971e+04
-5.972000441524000053e+04
-5.972484061675999692e+04
-5.972497995197999990e+04
-5.972240345004000119e+04
-5.972095702929999970e+04
-5.972353755834999902e+04
-5.972052518035999674e+04
-5.972355963656999666e+04
-5.972322882954999659e+04
-5.971861920102000295e+04
-5.972168629843999952e+04
-5.972179405733999738e+04
-5.972260423617000197e+04
-5.972090887307000230e+04
-5.972583547525999893e+04
-5.971885852329000045e+04
-5.972252810696000233e+04
-5.972272505079999974e+04
-5.972079759961999662e+04
-5.972817733507999947e+04
-5.972266097995999735e+04
-5.972389142207000259e+04
-5.972685731156999827e+04
-5.972425198575000104e+04
-5.972258428732000175e+04
-5.972353904263000004e+04
-5.972314130583999940e+04
-5.971515958787000272e+04
-5.972164873639999860e+04
-5.972304617673000030e+04
-5.971641839069999696e+04
-5.972303052819000004e+04
-5.972445800731000054e+04
-5.972398637276000227e+04
-5.972338743845000135e+04
-5.972338743845000135e+04
-5.972380774748000113e+04
-5.972198848705999990e+04
-5.972292865708000318e+04
-5.972505365187000280e+04
-5.972600294574999862e+04
-5.972096671985000285e+04
-5.972206242042999656e+04
-5.972139122525999846e+04
-5.972253299662999780e+04
-5.972379874533999828e+04
-5.972260548764000123e+04
-5.972301674890000140e+04
-5.972408301308999944e+04
-5.972547093337000115e+04
-5.971381959977000224e+04
-5.972468260839999857e+04
-5.972264355351000268e+04
-5.972309735709999950e+04
-5.972246878873000242e+04
-5.972269496457000059e+04
-5.972140123173999746e+04
-5.971921156045999669e+04
-5.972619041522999760e+04
-5.972411940131000301e+04
-5.972046102519000124e+04
-5.972292865708000318e+04
-5.972264355351000268e+04
-5.972575690289000340e+04
-5.972184270188999653e+04
-5.972510250952000206e+04
-5.972594847799000127e+04
-5.972497948955999891e+04
-5.971593411516000197e+04
-5.972224235357999714e+04
-5.972510250952000206e+04
-5.972270816097000352e+04
-5.972171277240000200e+04
-5.972357029974000034e+04
-5.972581753957999899e+04
-5.972242435714000021e+04
-5.971453755939999974e+04
-5.972341878318000090e+04
-5.972385453737000353e+04
-5.972070427991000179e+04
-5.972214742437999666e+04
-5.972201291592999769e+04
-5.972461740178000036e+04
-5.972487114601000212e+04
-5.971777526606000174e+04
-5.972509109804999753e+04
-5.972292865708000318e+04
-5.972338743845000135e+04
-5.972216904845999670e+04
-5.972109130205999827e+04
-5.972454410338999878e+04
-5.972443916170999728e+04
-5.972179405733999738e+04
-5.972388839775000088e+04
-5.972344590843000333e+04
-5.972465293586999906e+04
-5.972313992244999827e+04
-5.972505413799000235e+04
-5.972544594004000101e+04
-5.972292865708000318e+04
-5.972334495705999871e+04
-5.972389846561999730e+04
-5.972349075949999678e+04
-5.972455020525000145e+04
-5.972179405733999738e+04
-5.972292865708000318e+04
-5.972105359131000296e+04
-5.972674495587000274e+04
-5.972511754094999924e+04
-5.972643248003000190e+04
-5.972576913044999674e+04
-5.972448219141000300e+04
-5.972441597085999820e+04
-5.972077716050999879e+04
-5.972159359661000053e+04
-5.972465474882000126e+04
-5.972166450361000170e+04
-5.972137465989000339e+04
-5.972342357851000270e+04
-5.972307227448000049e+04
-5.972168629843999952e+04
-5.972388839775000088e+04
-5.972635151185999712e+04
-5.972467625040999701e+04
-5.972404148090999661e+04
-5.972465474882000126e+04
-5.972196958867999638e+04
-5.972338743845000135e+04
-5.972336850047000189e+04
-5.972303197789000114e+04
-5.972606322519999958e+04
-5.972479084106999653e+04
-5.972348526513999968e+04
-5.972507357619999675e+04
-5.972070427991000179e+04
-5.972450660136999795e+04
-5.972354911695999908e+04
-5.972446233737999864e+04
-5.972334290674999647e+04
-5.972279275537999638e+04
-5.972629354309000337e+04
-5.972485330309999699e+04
-5.972245851848000166e+04
-5.971764663712000038e+04
-5.972128814976000285e+04
-5.972305176978999953e+04
-5.972340836770000169e+04
-5.972168629843999952e+04
-5.971640168413000356e+04
-5.971772326600999804e+04
-5.972321426672000234e+04
-5.972701073485000234e+04
-5.972577217904999998e+04
-5.971758162168999843e+04
-5.972334620849000203e+04
-5.972333072328999697e+04
-5.972217314099999930e+04
-5.972525192232999689e+04
-5.971995452297000156e+04
-5.971755115669999941e+04
-5.972465474882000126e+04
-5.972179405733999738e+04
-5.972270807531000173e+04
-5.972179405733999738e+04
-5.972479288919999817e+04
-5.972292865708000318e+04
-5.972139678496999841e+04
-5.972542505913999776e+04
-5.972089860664000298e+04
-5.972492499595999834e+04
-5.971602130423000199e+04
-5.972389292551999824e+04
-5.972370625193000160e+04
-5.971717026841000188e+04
-5.972338743845000135e+04
-5.972286616155999945e+04
-5.972201179787000001e+04
-5.972284352506000141e+04
-5.972253878637000162e+04
-5.972182739230000152e+04
-5.972344839817000320e+04
-5.972338743845000135e+04
-5.972455072466000274e+04
-5.972259539229999791e+04
-5.972340722904999711e+04
-5.972168629843999952e+04
-5.972509574011999939e+04
-5.972370741164000356e+04
-5.972353755834999902e+04
-5.972340142781999748e+04
-5.972297284788999968e+04
-5.972627282497999840e+04
-5.972319194925000193e+04
-5.972292865708000318e+04
-5.972465474882000126e+04
-5.972250947995000024e+04
-5.971683965331000218e+04
-5.972388839775000088e+04
-5.972491325913000037e+04
-5.972150157174000196e+04
-5.972482635779999691e+04
-5.972356178955000360e+04
-5.972711997051999788e+04
-5.972402004529999977e+04
-5.972258444366000185e+04
-5.972268618481999874e+04
-5.972437568687000021e+04
-5.972263945473999775e+04
-5.972150377288000163e+04
-5.971593477698000061e+04
-5.972080428378000215e+04
-5.972342468501000258e+04
-5.971727716535999934e+04
-5.972264355351000268e+04
-5.972099699420999968e+04
-5.972510250952000206e+04
-5.972398791090000304e+04
-5.972136434534999717e+04
-5.972309070873999735e+04
-5.972070427991000179e+04
-5.972292865708000318e+04
-5.972292865708000318e+04
-5.971944328220999887e+04
-5.972437568687000021e+04
-5.972494581088999985e+04
-5.972773497972999758e+04
-5.972323949934000120e+04
-5.972221291673000087e+04
-5.972482787891000044e+04
-5.972305176978999953e+04
-5.972582252624999819e+04
-5.972512501974000043e+04
-5.972577446205999877e+04
-5.972886624085999938e+04
-5.971933245205000276e+04
-5.972126977554999758e+04
-5.972469172106999758e+04
-5.972052518035999674e+04
-5.972264355351000268e+04
-5.972465474882000126e+04
-5.972306113819000166e+04
-5.972359748525000032e+04
-5.972101678237000306e+04
-5.972690747304999968e+04
-5.972264355351000268e+04
-5.971612091484999837e+04
-5.972598907674999646e+04
-5.972500472669000010e+04
-5.971487595103999774e+04
-5.972657784949999768e+04
-5.972660861614000169e+04
-5.972312407410000014e+04
-5.972179405733999738e+04
-5.972303786602999753e+04
-5.972725434729999688e+04
-5.972262481210000260e+04
-5.972483923600999697e+04
-5.972179405733999738e+04
-5.972485103643999901e+04
-5.972314513532999990e+04
-5.972663519577999978e+04
-5.972155858943000203e+04
-5.972292865708000318e+04
-5.972509055441999953e+04
-5.972353755834999902e+04
-5.972361243336000189e+04
-5.972323538776000350e+04
-5.972388839775000088e+04
-5.971580057502000273e+04
-5.972560541987000033e+04
-5.972338743845000135e+04
-5.972413981272000092e+04
-5.972353755834999902e+04
-5.972273498378999648e+04
-5.972282632724999712e+04
-5.972411940131000301e+04
-5.972395996243999980e+04
-5.971881038929000351e+04
-5.972305176978999953e+04
-5.972426275681999687e+04
-5.972643248003000190e+04
-5.972843939582999883e+04
-5.972043301208999765e+04
-5.972497212222000235e+04
-5.972411940131000301e+04
-5.972521512618999986e+04
-5.971609334987000329e+04
-5.972478789371000312e+04
-5.972425275339999644e+04
-5.972628718156000104e+04
-5.972503389119000349e+04
-5.972094970302000002e+04
-5.972509109804999753e+04
-5.972349075949999678e+04
-5.972649608424000326e+04
-5.971644583353999769e+04
-5.972281572364999738e+04
-5.971809431492000294e+04
-5.972178069887000311e+04
-5.972367518032999942e+04
-5.972312076656000136e+04
-5.972482161803999770e+04
-5.972338743845000135e+04
-5.972442495708999922e+04
-5.972478789371000312e+04
-5.972222749787000066e+04
-5.972428230127000279e+04
-5.972604772080000112e+04
-5.972089694433000113e+04
-5.972022285484000167e+04
-5.972497112704999745e+04
-5.972168629843999952e+04
-5.972387222358000145e+04
-5.972478408297999704e+04
-5.972080386295999779e+04
-5.972525192232999689e+04
-5.972283145037000213e+04
-5.972292865708000318e+04
-5.971345305322999775e+04
-5.972388876534000156e+04
-5.972055574643000000e+04
-5.972168324667999696e+04
-5.972397294105999754e+04
-5.972588235677999910e+04
-5.972690747304999968e+04
-5.972292865708000318e+04
-5.972179405733999738e+04
-5.972471992417000001e+04
-5.972254261158999725e+04
-5.972004709565999656e+04
-5.972460175957000320e+04
-5.972487114601000212e+04
-5.972269570897999802e+04
-5.971697465465000278e+04
-5.972437568687000021e+04
-5.972509890641999664e+04
-5.972264355351000268e+04
-5.972179405733999738e+04
-5.972292865708000318e+04
-5.972605007215999649e+04
-5.972588222538000264e+04
-5.971825648394999735e+04
-5.972154508078000072e+04
-5.972204679133999889e+04
-5.972468260839999857e+04
-5.972607871272999910e+04
-5.971640471886999876e+04
-5.972497896172999754e+04
-5.972568545663999976e+04
-5.972179405733999738e+04
-5.971897253135999927e+04
-5.972578074916000332e+04
-5.972117978992000280e+04
-5.972310167669999646e+04
-5.972607432233000145e+04
-5.972292865708000318e+04
-5.971708780796000065e+04
-5.972320110310000018e+04
-5.972310508226999809e+04
-5.972218495381999674e+04
-5.971474769696000294e+04
-5.972483970643000066e+04
-5.972532041654999921e+04
-5.972545985471000313e+04
-5.972265647999000066e+04
-5.972701596391000203e+04
-5.972127214780999930e+04
-5.972208916976000182e+04
-5.972001023108999652e+04
-5.972427891051999904e+04
-5.972178965238999808e+04
-5.972422819893999986e+04
-5.972598436879999645e+04
-5.972353755834999902e+04
-5.971760914593000052e+04
-5.972447355557000265e+04
-5.972406429709000076e+04
-5.972070427991000179e+04
-5.972179405733999738e+04
-5.972106102002000262e+04
-5.972300868913999875e+04
-5.972204463019999821e+04
-5.972070427991000179e+04
-5.972510250952000206e+04
-5.972701389883999946e+04
-5.972292865708000318e+04
-5.972539811935999751e+04
-5.972353755834999902e+04
-5.972564349508000305e+04
-5.972662273973000265e+04
-5.972465474882000126e+04
-5.972450294463000319e+04
-5.972726943462999770e+04
-5.972241313747000095e+04
-5.972772596953999891e+04
-5.972338743845000135e+04
-5.972267086630000267e+04
-5.972779429572999652e+04
-5.972465474882000126e+04
-5.972297121075999894e+04
-5.972358480917000270e+04
-5.972513777469000343e+04
-5.972179405733999738e+04
-5.972231282192000072e+04
-5.972338743845000135e+04
-5.972265647180999804e+04
-5.972643248003000190e+04
-5.972414994222999667e+04
-5.972445709450000140e+04
-5.971543060127000354e+04
-5.972313094491000084e+04
-5.972263967835000221e+04
-5.971588800551999884e+04
-5.972311881305999850e+04
-5.972758543084999837e+04
-5.972414002507999976e+04
-5.972321426672000234e+04
-5.972241468752000219e+04
-5.972240698536999844e+04
-5.972541392646999884e+04
-5.972300022493000142e+04
-5.972722607373999926e+04
-5.972506565576999856e+04
-5.972154107428999851e+04
-5.972353755834999902e+04
-5.972580787266999687e+04
-5.972665845684999658e+04
-5.971964813462000166e+04
-5.972433596486999886e+04
-5.971922420678000344e+04
-5.972353755834999902e+04
-5.972179405733999738e+04
-5.972311350010999740e+04
-5.972255521541000053e+04
-5.972701179271999717e+04
-5.972142684280999674e+04
-5.972366332084999885e+04
-5.972241313747000095e+04
-5.971560082048999902e+04
-5.972179405733999738e+04
-5.972353755834999902e+04
-5.972206648740999663e+04
-5.971790099827000085e+04
-5.972353755834999902e+04
-5.972521290009000222e+04
-5.972004446977000043e+04
-5.971669236010999884e+04
-5.972323524765000184e+04
-5.972243630306999694e+04
-5.972010749467000278e+04
-5.972707003881999844e+04
-5.972131995145999826e+04
-5.972619041522999760e+04
-5.972318328663000284e+04
-5.972133183331000328e+04
-5.972314357462999760e+04
-5.972467611048000254e+04
-5.972619041522999760e+04
-5.972681853573000262e+04
-5.972229054537000047e+04
-5.972338743845000135e+04
-5.972510250952000206e+04
-5.972349075949999678e+04
-5.972187092465999740e+04
-5.972347134925000137e+04
-5.972292865708000318e+04
-5.972477856875999714e+04
-5.972468844821999664e+04
-5.972413465944999916e+04
-5.972517976608999743e+04
-5.971931282977000228e+04
-5.972903458408999722e+04
-5.972495152907999727e+04
-5.971818789559000288e+04
-5.971705085626999789e+04
-5.972455206154000189e+04
-5.972225317715999699e+04
