-5.971482569299999886e+04
-5.972353232492000097e+04
-5.972263967835000221e+04
-5.971463743242000055e+04
-5.971700602275999699e+04
-5.971533894185999816e+04
-5.971945827965000353e+04
-5.972409322018999956e+04
-5.972241832709000300e+04
-5.971272580513000139e+04
-5.972447389167000074e+04
-5.972461000380999758e+04
-5.972094462303000182e+04
-5.972199871616999735e+04
-5.972303047941999830e+04
-5.972241573501999665e+04
-5.971950158352000290e+04
-5.972258170082000288e+04
-5.972681853573000262e+04
-5.971800194678000116e+04
-5.972284344080000301e+04
-5.971995329738000146e+04
-5.970976598928999738e+04
-5.972005665915999998e+04
-5.972340722904999711e+04
-5.971166637056999753e+04
-5.972442581552999764e+04
-5.971575232256000163e+04
-5.971262912636999681e+04
-5.970976598928999738e+04
-5.972228246906999993e+04
-5.971166637056999753e+04
-5.971454738032999740e+04
-5.972193026077999821e+04
-5.972408146452000074e+04
-5.972468260839999857e+04
-5.972213894678000361e+04
-5.972685731156999827e+04
-5.971617846198000188e+04
-5.972007283815999835e+04
-5.972375739081999927e+04
-5.971520804679000139e+04
-5.971993473464000272e+04
-5.971474339162999968e+04
-5.971438177805000305e+04
-5.972344845735000126e+04
-5.971460948595999798e+04
-5.970976598928999738e+04
-5.972636252589999640e+04
-5.971166637056999753e+04
-5.972552753233999829e+04
-5.971772860149000189e+04
-5.971590752043000248e+04
-5.972385453737000353e+04
-5.972173878410000179e+04
-5.971410340795000229e+04
-5.972734412380000140e+04
-5.972333072328999697e+04
-5.971925224075999722e+04
-5.972607432233000145e+04
-5.972463781580999785e+04
-5.972171497154999815e+04
-5.972186689302000013e+04
-5.971386889414000325e+04
-5.971846209768999688e+04
-5.971334800630000245e+04
-5.971324820229999750e+04
-5.972156021594999766e+04
-5.972441436188999796e+04
-5.972393944865999947e+04
-5.971976206403999822e+04
-5.971546592873999907e+04
-5.971680603998999868e+04
-5.971433868585000164e+04
-5.972697689451000042e+04
-5.972050475313000061e+04
-5.971575232256000163e+04
-5.972435914336999849e+04
-5.971832468591000361e+04
-5.972503389119000349e+04
-5.971526081634999719e+04
-5.971514636512000288e+04
-5.971166637056999753e+04
-5.971613552997000079e+04
-5.972197169430999929e+04
-5.971388694158999715e+04
-5.972488649581000209e+04
-5.971460948595999798e+04
-5.972374646255999687e+04
-5.971444334697999875e+04
-5.972402004529999977e+04
-5.971801019462000113e+04
-5.971819181576000119e+04
-5.971665493086999777e+04
-5.972260269654000149e+04
-5.972345631667000271e+04
-5.971460948595999798e+04
-5.972526689038000040e+04
-5.971925252575000195e+04
-5.971401874200999737e+04
-5.972366601205000188e+04
-5.972050966627000162e+04
-5.971166637056999753e+04
-5.971889583699999639e+04
-5.972348524241000268e+04
-5.972404148090999661e+04
-5.972591382023000187e+04
-5.972489155230000324e+04
-5.971463608928000031e+04
-5.970976598928999738e+04
-5.971697835684999882e+04
-5.971704631325000082e+04
-5.971800671503000194e+04
-5.972604772080000112e+04
-5.972111423869999999e+04
-5.971986609853000118e+04
-5.971049712800000270e+04
-5.972471285989999888e+04
-5.972389529595999920e+04
-5.971609897128999728e+04
-5.972396508329000062e+04
-5.972141671468000277e+04
-5.971264714061999985e+04
-5.972243630306999694e+04
-5.972318328663000284e+04
-5.971575232256000163e+04
-5.972128444452000258e+04
-5.971918614774999878e+04
-5.971575232256000163e+04
-5.972785353767000197e+04
-5.971976027836999856e+04
-5.972022285484000167e+04
-5.972225317715999699e+04
-5.972355643584999780e+04
-5.972924022351000167e+04
-5.971747645871999703e+04
-5.971460948595999798e+04
-5.971482187531000091e+04
-5.971863856915000360e+04
-5.972358905206999771e+04
-5.971931282977000228e+04
-5.972300892557999759e+04
-5.972208222763999947e+04
-5.972272318791999714e+04
-5.972272665139000310e+04
-5.971804073564000282e+04
-5.971335277286000201e+04
-5.972474026156999753e+04
-5.971911528884000290e+04
-5.971826678436999646e+04
-5.971497075886999664e+04
-5.971011452465000184e+04
-5.971248403952999797e+04
-5.972320146106000175e+04
-5.972408384197999840e+04
-5.971798639027999889e+04
-5.971571243810000306e+04
-5.971460948595999798e+04
-5.971797251554000104e+04
-5.972572474612000224e+04
-5.971166637056999753e+04
-5.971771832207000261e+04
-5.972608244001000276e+04
-5.972509055441999953e+04
-5.971166637056999753e+04
-5.972128645582999889e+04
-5.972500227363999875e+04
-5.972712366571999883e+04
-5.972254385308000201e+04
-5.971691618079000182e+04
-5.972527137483999832e+04
-5.972154466556999978e+04
-5.972346598478999658e+04
-5.971575232256000163e+04
-5.972224235357999714e+04
-5.971307263912000053e+04
-5.970976598928999738e+04
-5.972356178955000360e+04
-5.971797689314000309e+04
-5.971886201157000323e+04
-5.971340580736999982e+04
-5.971460948595999798e+04
-5.972489402759000222e+04
-5.972369834465000167e+04
-5.971166637056999753e+04
-5.971734912171000178e+04
-5.971460948595999798e+04
-5.972242408597000031e+04
-5.972597965123999893e+04
-5.971460948595999798e+04
-5.971957454693000182e+04
-5.972325020234000112e+04
-5.971275907444999757e+04
-5.972034576211000240e+04
-5.972326126438000210e+04
-5.972465208579000318e+04
-5.971166637056999753e+04
-5.971881380735999846e+04
-5.972221703721000085e+04
-5.971418324156000017e+04
-5.972017869280999730e+04
-5.972252398874999926e+04
-5.972446944595000241e+04
-5.971314826521000214e+04
-5.971570892848000221e+04
-5.972208250435000082e+04
-5.971871059180999873e+04
-5.971679072173000168e+04
-5.971748767352999857e+04
-5.972400286190999759e+04
-5.972347961452999880e+04
-5.972244021267999779e+04
-5.971460948595999798e+04
-5.971438169729999936e+04
-5.972512840177000180e+04
-5.972221291673000087e+04
-5.972355695667999680e+04
-5.972242530167999939e+04
-5.972257433217999642e+04
-5.971969643083000119e+04
-5.971774783962999936e+04
-5.972638342086000193e+04
-5.972239265441000316e+04
-5.972394222599000204e+04
-5.971656442909000179e+04
-5.971835157592999894e+04
-5.972334290674999647e+04
-5.972238905674999842e+04
-5.972314446917000168e+04
-5.971193562158999703e+04
-5.972260016775999975e+04
-5.971657306110000354e+04
-5.972253833532000135e+04
-5.971762936579000234e+04
-5.971804613488999894e+04
-5.972361524494000332e+04
-5.971343625212000188e+04
-5.971460948595999798e+04
-5.971807802185999753e+04
-5.972027290065000125e+04
-5.972458067237000068e+04
-5.972477856875999714e+04
-5.971637746504999814e+04
-5.971576932600000146e+04
-5.972633643411000230e+04
-5.972468260839999857e+04
-5.971493230777999997e+04
-5.972622910468999908e+04
-5.972281572364999738e+04
-5.972007774131999759e+04
-5.972078644553000049e+04
-5.971997442169999704e+04
-5.972189277661999949e+04
-5.972125604898000165e+04
-5.970976598928999738e+04
-5.972193026077999821e+04
-5.972246878873000242e+04
-5.972054583653999725e+04
-5.972260269654000149e+04
-5.971615409974000067e+04
-5.970976598928999738e+04
-5.971698585465000360e+04
-5.972521512618999986e+04
-5.971861696544000006e+04
-5.971534827206999762e+04
-5.971460948595999798e+04
-5.972670159214999876e+04
-5.972391968623000139e+04
-5.971388685180999892e+04
-5.972748078201000317e+04
-5.972591962680000142e+04
-5.970976598928999738e+04
-5.970876338129999931e+04
-5.971460948595999798e+04
-5.972213130614999682e+04
-5.972390907917000004e+04
-5.971569706728000165e+04
-5.971895481909000227e+04
-5.971992256602999987e+04
-5.970976598928999738e+04
-5.972547093337000115e+04
-5.972229745823000121e+04
-5.971726347582999733e+04
-5.971461967678999645e+04
-5.972544369754000218e+04
-5.972437384326999745e+04
-5.972045875790999708e+04
-5.972347134925000137e+04
-5.971268196375999833e+04
-5.972190413014999649e+04
-5.972238910959000350e+04
-5.972057455397999729e+04
-5.971962535534999915e+04
-5.972550086439999723e+04
-5.971667993672000011e+04
-5.971596935256000143e+04
-5.972468260839999857e+04
-5.971819472556999972e+04
-5.972466968259999703e+04
-5.972065957231000357e+04
-5.972267035705000308e+04
-5.971897371438999835e+04
-5.972509890641999664e+04
-5.972389229781000176e+04
-5.971683933304999664e+04
-5.972127214780999930e+04
-5.971166637056999753e+04
-5.972255521541000053e+04
-5.971487644647999696e+04
-5.972212621594999655e+04
-5.972508943680999801e+04
-5.971825949011999910e+04
-5.971166637056999753e+04
-5.972398695703999692e+04
-5.972250196395000239e+04
-5.972078247381000256e+04
-5.972292874394999671e+04
-5.971499627701000281e+04
-5.971842714808000164e+04
-5.972468260839999857e+04
-5.972241724876999797e+04
-5.972444021957999939e+04
-5.972271782523999718e+04
-5.972071665313999983e+04
-5.970956203462999838e+04
-5.972222704369999701e+04
-5.972293154656999832e+04
-5.972701389883999946e+04
-5.972438154950000171e+04
-5.972149966175000009e+04
-5.972578981803000352e+04
-5.972530964816000051e+04
-5.972527867007000168e+04
-5.971980818621999788e+04
-5.972526009099999646e+04
-5.971460948595999798e+04
-5.972570424156999798e+04
-5.971643775953000295e+04
-5.972258764384000096e+04
-5.972476012659999833e+04
-5.972269064849000279e+04
-5.972361779055999796e+04
-5.971797543420999864e+04
-5.972147723502999725e+04
-5.972357029974000034e+04
-5.971460948595999798e+04
-5.971522352795999905e+04
-5.972604913050000323e+04
-5.972209562800999993e+04
-5.972187092465999740e+04
-5.972468260839999857e+04
-5.971236029081999732e+04
-5.972321581496999715e+04
-5.971632920603000093e+04
-5.972312407410000014e+04
-5.971625299878999795e+04
-5.972584031777000200e+04
-5.972237545456000225e+04
-5.971350039937000111e+04
-5.971467009661000338e+04
-5.972571827004000079e+04
-5.971910656718999962e+04
-5.970956203462999838e+04
-5.972413597924000351e+04
-5.972468260839999857e+04
-5.971248491498999647e+04
-5.972094403454999701e+04
-5.972510531282999727e+04
-5.972136434534999717e+04
-5.971932339140000113e+04
-5.972708529570999963e+04
-5.971623480376999942e+04
-5.972474936278999667e+04
-5.972313211160000355e+04
-5.972468260839999857e+04
-5.972214742437999666e+04
-5.971614492956000322e+04
-5.970976598928999738e+04
-5.972342468501000258e+04
-5.971853501993999816e+04
-5.972230149938999966e+04
-5.971166637056999753e+04
-5.971961445185999764e+04
-5.971575232256000163e+04
-5.972497995197999990e+04
-5.972636252589999640e+04
-5.972396863630999724e+04
-5.972548161943000014e+04
-5.972169340979000117e+04
-5.971349545278999722e+04
-5.971406547069000226e+04
-5.972314513532999990e+04
-5.972283673612999701e+04
-5.972507787093999650e+04
-5.972430494883999927e+04
-5.971640593300999899e+04
-5.971460948595999798e+04
-5.972606395237999823e+04
-5.972047739395000099e+04
-5.972036774547999812e+04
-5.971643352024000342e+04
-5.972244021267999779e+04
-5.972544971110999904e+04
-5.971460948595999798e+04
-5.971890731185000186e+04
-5.972221041882000281e+04
-5.972129536009999720e+04
-5.971537977787999989e+04
-5.971131637798000156e+04
-5.972070681717999832e+04
-5.972678601825000078e+04
-5.972067662579000171e+04
-5.972332012281999778e+04
-5.972413587659000041e+04
-5.972089694433000113e+04
-5.972555928451000364e+04
-5.972417944482999883e+04
-5.971810935867000080e+04
-5.971893539051999687e+04
-5.971828819225999905e+04
-5.972560788234000211e+04
-5.972217569596999965e+04
-5.972521290009000222e+04
-5.972692975404999743e+04
-5.972431395941999654e+04
-5.971423100582000188e+04
-5.971599044013000093e+04
-5.972195289713999955e+04
-5.971482523028000287e+04
-5.971959832571999868e+04
-5.971864062735000334e+04
-5.971361034107000160e+04
-5.972312430471999687e+04
-5.971672046812000190e+04
-5.972250093155999639e+04
-5.972313040411000111e+04
-5.971775857476000238e+04
-5.972025986995999847e+04
-5.971460948595999798e+04
-5.972468260839999857e+04
-5.972273630191999837e+04
-5.971874742641000194e+04
-5.972315382964000310e+04
-5.972722333387000253e+04
-5.971460948595999798e+04
-5.971460948595999798e+04
-5.972357598898000288e+04
-5.972484498034999706e+04
-5.972389142207000259e+04
-5.971864855843000259e+04
-5.972231282192000072e+04
-5.970694510014000116e+04
-5.971851191259000188e+04
-5.972088525254999695e+04
-5.972159998857999744e+04
-5.971720746355000301e+04
-5.971830063455000345e+04
-5.972576540673000272e+04
-5.971212460676999763e+04
-5.971895121323999774e+04
-5.971817322743999830e+04
-5.972266620351999882e+04
-5.972239511174999643e+04
-5.972100247597000271e+04
-5.972002430694999930e+04
-5.972311350010999740e+04
-5.972685974466000334e+04
-5.971747996620999766e+04
-5.971783275960000174e+04
-5.972636252589999640e+04
-5.972000490780999826e+04
-5.972963856430000305e+04
-5.972244021267999779e+04
-5.972756144212000072e+04
-5.972282712269000331e+04
-5.972278209505000268e+04
-5.972244021267999779e+04
-5.971735139804000210e+04
-5.971924732503999985e+04
-5.971522508386000118e+04
-5.972368913587999850e+04
-5.971872408027000347e+04
-5.970956203462999838e+04
-5.972355963656999666e+04
-5.972134783767000044e+04
-5.972607871272999910e+04
-5.971369651102000353e+04
-5.971596692443999927e+04
-5.972695778530999814e+04
-5.971628959896000015e+04
-5.971884594700999878e+04
-5.972282605376999709e+04
-5.972163922543000081e+04
-5.972109130205999827e+04
