-59685.07917942
-59707.20494947
-59730.26058638
-59725.53024389
-59728.66466696
-59738.75331544
-59730.87960253
-59724.99119445
-59734.31247739
-59732.82140574
-59737.64159822
-59732.96181532
-59738.15107093
-59740.23321179
-59727.25039588
-59734.09440123
-59720.77443918
-59734.80862337
-59734.18255293
-59742.63358726
-59730.58923172
-59727.19034715
-59728.13889201
-59719.67084898
-59730.92166390
-59733.37367284
-59738.44239871
-59738.06137625
-59738.69953881
-59744.91125714
-59740.73327261
-59737.02255127
-59736.04015315
-59740.21522643
-59746.19951291
-59739.21227989
-59737.25879806
-59741.73944083
-59734.11740843
-59737.26610327
-59737.37362048
-59742.47440549
-59737.06458325
-59728.10099692
-59721.82624503
-59694.31808342
-59731.63975990
-59735.58440178
-59737.39357325
-59731.90125223
-59735.63135107
-59735.10431169
-59732.53274007
-59737.24436092
-59738.85628311
-59737.86658147
-59730.14599083
-59732.24556869
-59735.95636488
-59729.28562987
-59739.47391658
-59732.72895061
-59726.30207776
-59734.53382000
-59739.63554839
-59729.65894039
-59742.83768184
-59742.78064463
-59732.38871769
-59743.50986927
-59744.20672544
-59742.17509756
-59741.58050543
-59737.55156693
-59738.75903811
-59742.50968043
-59732.77668211
-59733.38839917
-59735.27268661
-59737.87624874
-59741.07706256
-59742.31623548
-59742.31623731
-59756.78928965
-59745.24169734
-59737.81212699
-59739.19337119
-59735.38079764
-59729.20616861
-59737.99238176
-59728.43520548
-59724.71270909
-59737.80836804
-59734.47774757
-59737.38288753
-59738.54587035
-59737.96375804
-59742.95917037
-59739.07970601
-59740.50313026
-59755.25309546
-59743.35363452
-59740.05033147
-59738.62250158
-59739.49598787
-59744.66262971
-59741.95682831
-59735.73709400
-59739.04878051
-59735.99000768
-59735.77902905
-59739.02586414
-59732.49042880
-59732.63600996
-59736.96345558
-59737.90097772
-59733.30630527
-59734.77863155
-59732.80370990
-59729.98620574
-59736.68407646
-59731.15277871
-59736.77926845
-59734.13168408
-59733.83493558
-59731.01633957
-59737.17122642
-59737.10486096
-59738.90725609
-59736.21481945
-59738.77652633
-59738.35146246
-59738.06111527
-59732.44750044
-59734.90602405
-59739.29107366
-59740.45704113
-59737.83334164
-59741.25774180
-59739.61915732
-59738.95587983
-59737.84794081
-59737.57028294
-59740.11207331
-59739.78134275
-59736.51205313
-59737.40969929
-59730.92569279
-59733.46475166
-59745.04352103
-59739.63261398
-59732.62876994
-59735.88098969
-59745.98765206
-59737.56719270
-59734.42975240
-59732.04093616
-59715.61770687
-59735.39916594
-59739.92303631
-59734.54906142
-59736.74982811
-59732.83835852
-59735.87656777
-59738.11575712
-59741.95759886
-59736.69014937
-59733.26485334
-59736.16031490
-59728.91457800
-59733.81440192
-59762.26060335
-59740.38576592
-59742.67354615
-59739.71794992
-59745.12542655
-59739.76108759
-59735.72447217
-59733.55646468
-59732.17883140
-59736.78584478
-59738.17426589
-59737.39920483
-59737.91612007
-59729.75985031
-59731.84027152
-59729.23681645
-59738.91887080
-59738.44784566
-59734.32970766
-59736.62587482
-59737.01120073
-59742.16300282
-59744.47749940
-59742.51331193
-59746.25219376
-59749.77057827
-59740.04368690
-59751.79081264
-59757.11538244
-59746.11732533
-59742.61104131
-59745.66960370
-59745.33380067
-59744.25279556
-59742.22682356
-59741.78859136
-59740.66745549
-59741.91521551
-59735.34051385
-59739.99313833
-59736.53099220
-59725.81862935
-59697.13394077
-59731.29669970
-59728.96638824
-59735.44625851
-59743.21384533
-59736.44130105
-59744.14752217
-59743.32951540
-59749.34186719
-59748.40918912
-59743.44216356
-59739.34186234
-59765.06213147
-59767.06657594
-59748.03353061
-59729.17346163
-59728.98970119
-59737.23941652
-59732.84086606
-59740.11554010
-59733.34991289
-59733.18310707
-59741.17457585
-59729.67590836
-59740.50095176
-59741.95034540
-59737.98386429
-59739.65342598
-59739.78115355
-59738.45362532
-59736.52446778
-59741.42251343
-59736.35599050
-59713.99758447
-59722.94685359
-59740.04994970
-59745.37294170
-59735.52744591
-59751.30780556
-59740.79355416
-59740.18522058
-59728.41813860
-59726.71221127
-59740.42757828
-59729.54302354
-59735.06636679
-59735.51697213
-59740.32816311
-59734.76876129
-59739.89002725
-59739.76809659
-59739.94091611
-59737.58279656
-59736.86035368
-59736.51148318
-59733.49407850
-59724.29617935
-59721.78241674
-59723.42135259
-59736.68142408
-59735.48479192
-59736.58163588
-59726.50715002
-59739.16306183
-59739.58040890
-59731.72692482
-59741.67628142
-59755.07215335
-59737.36250815
-59733.16334297
-59735.56777608
-59739.00880101
-59737.89591919
-59740.78715643
-59732.47714318
-59717.75903559
-59739.22496055
-59736.72559270
-59732.66554618
-59734.63904541
-59739.37227889
-59745.10205473
-59732.62408675
-59737.35044825
-59743.04620076
-59741.83280180
-59708.58659235
-59737.88335017
-59740.04064956
-59737.90632927
-59723.98223342
-59741.93397628
-59741.00096815
-59739.75864715
-59737.60522102
-59736.70691009
-59740.25583581
-59735.23391086
-59728.55413996
-59725.38596544
-59734.80580484
-59737.66807329
-59735.10853247
-59740.83684658
-59738.01519223
-59735.16118191
-59728.18627724
-59732.15597465
-59734.42117506
-59740.48678867
-59737.96635281
-59735.62098197
-59746.14180639
-59734.79458494
-59748.22864980
-59736.64628822
-59736.97220118
-59737.11337901
-59735.72581344
-59731.64904941
-59731.67396512
-59735.75746986
-59737.49688236
-59737.64806107
-59741.98559983
-59731.76490141
-59739.96173987
-59734.19658266
-59723.69412174
-59725.51483995
-59731.06914133
-59730.25423755
-59738.26731172
-59739.57530850
-59738.35426887
-59742.14584531
-59738.50616003
-59742.80501833
-59739.27100431
-59741.44158295
-59738.64058804
-59736.03488730
-59739.67768341
-59740.41505892
-59737.56299678
-59741.79226029
-59734.33580441
-59738.63452035
-59744.82553115
-59734.30393286
-59742.61163545
-59744.37939576
-59757.00001942
-59748.16189745
-59743.55786310
-59748.98486038
-59738.80116318
-59738.76864613
-59738.43089199
-59732.51149600
-59741.30838222
-59730.58322956
-59728.41690745
-59738.79506662
-59738.91940669
-59736.37449444
-59731.22596998
-59739.11276327
-59737.55546870
-59739.67036223
-59747.20995011
-59742.36171655
-59738.40888337
-59737.21026195
-59738.27422367
-59732.81224764
-59737.50119938
-59733.75545876
-59738.14062758
-59735.27507932
-59738.98563031
-59736.85424146
-59739.89117679
-59739.09888744
-59736.29458163
-59733.57849266
-59736.66496407
-59733.37336293
-59736.40827834
-59736.18611925
-59747.37837231
-59740.05422564
-59737.35548625
-59743.32791822
-59737.96889710
-59739.00599570
-59738.05962856
-59741.88280616
-59741.08967462
-59745.41346952
-59742.53551612
-59734.80051386
-59721.70103918
-59741.98142598
-59723.25822248
-59716.58988913
-59727.13092556
-59734.27177373
-59736.51899217
-59732.03407332
-59739.48960749
-59732.58845322
-59739.63462216
-59732.77879959
-59729.03955805
-59733.38164265
-59736.06764780
-59734.17465393
-59741.18779691
-59740.46350967
-59727.76179387
-59734.57025870
-59731.38227886
-59735.05844690
-59737.32672181
-59734.16157841
-59740.72241141
-59740.84994279
-59745.37013606
-59744.05003157
-59738.01369112
-59741.22202465
-59732.07140855
-59737.82262392
-59742.51671949
-59733.80490852
-59738.93967942
-59742.24689956
-59735.28025375
-59730.24814808
-59738.01486650
-59742.28586558
-59741.07264210
-59741.01138614
-59745.59017741
-59733.00027191
-59739.32027287
-59737.18791190
-59737.78240899
-59744.25118543
-59740.83396791
-59736.54632815
-59737.24352427
-59755.60594291
-59733.07437107
-59738.29257821
-59734.76783562
-59734.11051673
-59736.44612628
-59734.97810906
-59739.89478635
-59741.40934098
-59718.86791995
-59737.92997435
-59738.23509057
-59738.52369868
-59739.67769261
-59731.53906234
-59736.99900021
-59731.12120058
-59735.08133832
-59741.78870197
-59736.81069342
-59738.20566055
-59740.42354034
-59729.94625888
-59731.36727263
-59745.61058139
-59744.98439148
-59742.23125488
-59745.42663575
-59738.19879165
-59737.68630132
-59736.07590458
-59727.89711294
-59728.03285749
-59751.54001867
-59742.34033532
-59741.72810419
-59737.54164148
-59739.98982664
-59738.12902207
-59730.59247242
-59739.76424885
-59745.49623158
-59748.30338096
-59728.58952537
-59742.92237047
-59737.85629487
-59731.28125814
-59730.54079724
-59734.07571465
-59725.70824508
-59731.54086222
-59735.13117026
-59732.92186866
-59735.32398984
-59734.59506008
-59731.35280933
-59750.14009789
-59761.99595937
-59754.49498796
-59735.25608887
-59733.39680101
-59709.30551829
-59740.28037651
-59734.97717305
-59736.26765948
-59737.26841413
-59734.15410133
-59733.24207026
-59733.54459601
-59733.97944749
-59747.14731410
-59748.83077032
-59734.29777373
-59738.47567520
-59734.99285913
-59737.48706912
-59740.52564581
-59736.28438814
-59736.08577812
-59738.72781115
-59735.20540061
-59735.23738901
-59746.22758949
-59745.51623914
-59738.27429473
-59743.78269189
-59734.82404238
-59740.62288416
-59743.26306123
-59737.11912016
-59743.72412674
-59756.81612498
-59735.79935052
-59755.96780364
-59758.68537488
-59752.26244638
-59685.11894704
-59696.00283693
-59687.89077180
-59719.56623260
-59721.96893777
-59723.46086270
-59727.47216515
-59727.74142104
-59730.72077662
-59728.02150288
-59723.59418044
-59723.55082138
-59724.70584051
-59726.31943230
-59724.72645757
-59729.67358312
-59736.34766272
-59734.99236786
-59736.47306485
-59735.62384965
-59732.15764456
-59726.27658100
-59732.90745480
-59727.93126886
-59727.32979506
-59728.98001554
-59728.34478071
-59771.34333490
-59729.12264690
-59734.30452157
-59727.11743005
-59726.76430410
-59726.36565537
-59726.10505939
-59729.96981649
-59728.82611168
-59728.02454775
-59727.71769619
-59724.00419378
-59728.59004243
-59732.13862045
-59730.34146566
-59738.04532643
-59733.92553572
-59737.95568417
-59731.30287679
-59727.44716287
-59732.63133404
-59734.54034611
-59734.64527417
-59742.78931105
-59742.78930099
-59726.30342212
-59725.15545580
-59728.07093407
-59734.92536735
-59737.20731205
-59737.20731176
-59735.52687059
-59729.53994497
-59730.25401834
-59735.17642148
-59733.98869125
-59730.00504595
-59730.92684623
-59724.59181460
-59730.89041493
-59729.98138182
-59726.64398631
-59721.02150096
-59720.82000976
-59734.63263413
-59732.96468514
-59733.33702746
-59732.49640862
-59733.86030080
-59733.72829385
-59728.84855974
-59717.54690262
-59723.80947809
-59723.80947807
-59721.06310919
-59722.99990783
-59725.30748018
-59729.75939633
-59721.48222482
-59726.06932342
-59724.97656466
-59731.22878526
-59725.13975964
-59726.37688668
-59738.13924855
-59731.43499926
-59726.48095337
-59736.78472275
-59730.46225327
-59749.24894799
-59732.65215515
-59732.35416448
-59702.61190784
-59723.49656777
-59722.73347183
-59733.33960497
-59727.79814108
-59725.23451927
-59731.54958912
-59731.42991558
-59736.15237708
-59735.88109912
-59740.26327683
-59729.72936459
-59729.28208953
-59728.90925857
-59730.60938480
-59732.58893429
-59729.36558763
-59729.93767073
-59727.26474699
-59728.60687481
-59729.40064438
-59724.55011818
-59730.12976176
-59728.69697177
-59733.72789300
-59728.02207341
-59735.42606446
-59733.40632702
-59729.81666314
-59724.76159370
-59730.85514454
-59727.59395850
-59727.41709071
-59728.47059385
-59735.14899440
-59727.55612365
-59727.25970411
-59731.32557807
-59738.08603345
-59731.46620653
-59728.81127118
-59729.74317209
-59730.35612394
-59730.23024446
-59729.68621352
-59726.60201968
-59731.72095165
-59728.70559345
-59730.34745138
-59725.94624918
-59731.37124932
-59726.84512382
-59729.24973949
-59713.19560988
-59717.26743455
-59726.90334423
-59705.05491239
-59730.84158979
-59732.90482661
-59732.32322032
-59730.00422700
-59733.19689136
-59735.25152735
-59734.34563031
-59732.24141004
-59737.98936825
-59745.56806015
-59738.10089381
-59739.59161398
-59735.97401616
-59733.13537692
-59732.14270981
-59725.44992410
-59724.14786719
-59727.07066236
-59717.82000517
-59722.34299574
-59724.25549479
-59731.10250835
-59731.92646959
-59728.96302650
-59727.38181096
-59719.05043630
-59725.03532331
-59727.51775504
-59729.36083029
-59743.23277472
-59728.89244281
-59728.90877330
-59726.99827197
-59730.96887068
-59740.32340009
-59737.26490347
-59738.31981819
-59741.64517980
-59740.11898383
-59746.31375250
-59739.17573834
-59735.46829697
-59734.78254474
-59732.27314319
-59733.81007233
-59735.93312251
-59734.29204653
-59735.79900378
-59729.43603048
-59731.28276542
-59734.15558473
-59734.28609451
-59732.64977840
-59734.97439475
-59725.54628788
-59731.80726170
-59726.32468371
-59728.72905209
-59739.45918235
-59734.62227534
-59744.97479871
-59738.53334328
-59735.94641407
-59726.25410878
-59732.31592938
-59734.57548048
-59730.36380847
-59726.65245765
-59731.58847108
-59723.90300856
-59731.53423023
-59738.72019049
-59739.23054753
-59731.77723558
-59729.52916523
-59730.90487048
-59738.08218355
-59735.02424426
-59731.74473295
-59738.02456202
-59733.56934487
-59730.74988091
-59737.12966449
-59734.08904119
-59727.95604625
-59731.19874223
-59730.17570167
-59736.60841081
-59722.70802031
-59738.63857334
-59746.03660537
-59740.75481353
-59734.71102077
-59740.43733559
-59730.20009328
-59728.92505905
-59736.38152344
-59741.21654243
-59735.65794956
-59732.09899044
-59732.69549947
-59728.80227639
-59729.58766518
-59740.64368216
-59741.26168367
-59735.82540832
-59733.65577986
-59730.91151089
-59729.17692070
-59735.04276063
-59733.63860928
-59730.42318112
-59732.03297128
-59732.94077150
-59730.33395050
-59733.44165752
-59730.51135512
-59727.41169056
-59733.04330522
-59730.00018425
-59736.46979650
-59731.12040710
-59731.63896593
-59735.23116696
-59732.80248849
-59726.19689405
-59737.85501913
-59732.43200243
-59731.02310461
-59729.97730143
-59728.70868499
-59731.00570311
-59733.01545581
-59732.31620263
-59720.62780902
-59728.38468076
-59738.45069864
-59725.51184027
-59726.07868742
-59722.65953110
-59731.94282916
-59729.59586959
-59731.43937558
-59733.06144403
-59733.39920936
-59732.65771592
-59739.75170368
-59735.88560072
-59732.02623723
-59727.56560700
-59726.60237380
-59731.08965843
-59732.80038853
-59734.98734215
-59731.20932646
-59729.33340157
-59735.05990254
-59729.96536753
-59733.44201020
-59732.51176096
-59731.69458494
-59730.81633168
-59730.93772011
-59728.13118095
-59729.06296070
-59727.29519684
-59732.59213032
-59733.54226344
-59727.71468277
-59727.28469787
-59730.33799771
-59731.18336239
-59733.13970940
-59732.35204139
-59733.00166782
-59732.99005599
-59734.44010580
-59731.33538319
-59730.57160301
-59727.24615191
-59734.10539698
-59731.58931904
-59736.14453139
-59734.95323725
-59734.16842507
-59736.00995276
-59737.95585447
-59732.79262258
-59733.60569160
-59729.66658617
-59734.38080299
-59731.41294106
-59725.92395445
-59731.52423825
-59730.47371117
-59728.31460089
-59730.01677127
-59731.25676699
-59733.85850491
-59730.03013384
-59730.18835951
-59730.91163534
-59729.18512140
-59730.15380976
-59736.77279430
-59738.65511527
-59734.47175298
-59721.58856502
-59729.28284093
-59731.69338299
-59730.99753105
-59728.39034499
-59730.28138047
-59732.15607010
-59721.89465616
-59730.08611207
-59733.91293152
-59731.43893883
-59735.77154826
-59731.17109518
-59729.14253982
-59725.94140692
-59734.08745464
-59725.24219885
-59734.58539900
-59716.56998818
-59731.76179482
-59738.67828116
-59730.33044525
-59734.11204060
-59728.68309327
-59731.82380795
-59731.91196542
-59737.14903626
-59725.69445401
-59732.29989610
-59736.19858695
-59737.83771781
-59723.34794156
-59737.86480560
-59739.58394617
-59730.44993286
-59737.62552286
-59740.01028509
-59732.19844782
-59688.82826834
-59736.40681328
-59729.78419289
-59735.66115056
-59730.59855648
-59731.08315767
-59733.18181707
-59729.19488452
-59728.22876208
-59731.62209880
-59728.84362069
-59738.53439902
-59730.91269890
-59730.11280277
-59720.71912243
-59725.23222701
-59733.07754264
-59731.23342626
-59734.78075199
-59736.19178982
-59733.42062336
-59732.60927810
-59735.12328820
-59737.58901239
-59735.20354149
-59734.83979590
-59738.19901594
-59737.18725245
-59739.05060883
-59734.90234274
-59735.63818300
-59731.26899373
-59724.46825680
-59734.39852144
-59730.89707122
-59727.72210305
-59731.77429067
-59732.22829520
-59732.14891334
-59734.58489730
-59686.20333597
-59701.84846357
-59721.37789521
-59715.22112171
-59727.09312274
-59725.31008866
-59727.97347218
-59724.45137814
-59723.18863434
-59728.03976334
-59727.68804930
-59720.72463015
-59731.97094903
-59734.47909818
-59724.00471637
-59724.23556286
-59733.70603298
-59728.54792532
-59734.53930591
-59737.71891866
-59725.25508639
-59726.68490015
-59728.54419198
-59719.93325022
-59731.20511311
-59732.99055779
-59728.99183004
-59733.01389431
-59725.51162145
-59727.52121985
-59730.04408976
-59727.47369776
-59729.34139125
-59737.59362700
-59728.96014955
-59732.06809636
-59727.57091221
-59728.30199163
-59726.74079495
-59745.49331129
-59736.19061891
-59731.91009152
-59733.35824137
-59735.56259267
-59734.25453887
-59731.77200644
-59731.09357756
-59729.40570423
-59731.53461130
-59729.85473825
-59731.22097043
-59729.85564833
-59723.71297865
-59723.01079778
-59729.18264628
-59729.60988981
-59729.88350412
-59730.42618504
-59731.50242498
-59734.12843825
-59734.15181174
-59732.87674921
-59733.19061274
-59736.18876702
-59736.18876680
-59732.76505659
-59731.34606370
-59724.19367559
-59728.01617810
-59730.45895647
-59732.74585005
-59725.07973117
-59725.44019911
-59708.96760076
-59718.33019839
-59724.21434808
-59729.46282407
-59731.82510282
-59728.94362798
-59734.51457147
-59729.54034796
-59730.18016861
-59729.35854762
-59731.88906324
-59731.91851668
-59733.46457566
-59728.76635697
-59741.77333507
-59726.86965801
-59733.40397131
-59736.98271502
-59728.49569626
-59736.02298919
-59727.83715171
-59728.27814348
-59731.77726791
-59712.88757661
-59728.20297901
-59727.61294410
-59728.76540501
-59723.59952806
-59725.66022436
-59730.28146036
-59731.51707281
-59728.72405390
-59730.64410547
-59729.74397742
-59733.33853513
-59732.44898662
-59730.51514403
-59728.59336133
-59715.60603778
-59726.82999851
-59730.53949556
-59730.86208344
-59727.09195741
-59731.38433609
-59731.15343352
-59731.15176787
-59735.01308238
-59735.94711389
-59727.42464047
-59731.07376186
-59722.77666327
-59731.01737980
-59725.66778253
-59731.21780328
-59732.48808803
-59730.67696018
-59732.29250631
-59727.59380393
-59723.94201256
-59712.80076393
-59726.55222131
-59731.96838256
-59730.44418124
-59725.38057689
-59726.24129896
-59730.46161668
-59734.38650906
-59728.96658951
-59737.98080827
-59736.64993832
-59728.68037551
-59730.97461664
-59728.54782859
-59738.51592027
-59734.51440426
-59732.82083510
-59728.40696419
-59734.00085932
-59722.16172147
-59730.17539294
-59731.91019246
-59728.31483745
-59732.42999187
-59733.01342798
-59734.01085345
-59732.39538257
-59730.17447817
-59728.56871890
-59730.90151869
-59726.61878963
-59725.31331147
-59717.44892226
-59722.92703801
-59732.18900891
-59730.41012270
-59725.72725948
-59729.21110379
-59735.92405317
-59730.43270389
-59726.50234599
-59728.92010141
-59729.22804082
-59725.68818235
-59728.86583210
-59733.34446264
-59731.82399934
-59728.58375093
-59727.36134731
-59731.89057461
-59731.13813863
-59732.75236015
-59725.98521385
-59720.12099637
-59729.55110136
-59727.36733287
-59725.83081698
-59730.19710416
-59729.18570103
-59724.92783556
-59727.17310846
-59732.71760867
-59730.48160887
-59734.04445920
-59729.57064649
-59727.94246376
-59727.73583034
-59728.96358962
-59736.53302770
-59731.66116401
-59733.24013430
-59728.64466895
-59727.92875833
-59736.02015868
-59726.99384662
-59733.52810273
-59733.43086317
-59732.66482420
-59735.22707989
-59732.87756020
-59730.49617695
-59730.34415078
-59730.03333240
-59728.64424149
-59727.55989392
-59733.58672380
-59730.02612942
-59726.98497158
-59728.43335288
-59729.31489900
-59731.21227849
-59734.22771669
-59729.34561793
-59731.01641921
-59732.15835796
-59734.65275234
-59732.24947381
-59719.56879509
-59727.48199317
-59730.59567853
-59732.82663140
-59745.13697582
-59733.10262036
-59725.85058675
-59715.43938195
-59722.54395866
-59730.27161095
-59729.26037514
-59735.44556717
-59731.57486370
-59729.13313413
-59723.52758095
-59730.62162782
-59735.57161263
-59728.72320580
-59743.20127262
-59722.61048158
-59712.86517232
-59715.36610407
-59725.35984026
-59720.21897183
-59725.43039233
-59729.34076535
-59736.38978634
-59730.48992731
-59741.27072612
-59736.39839756
-59727.52143147
-59729.58219315
-59732.75019183
-59729.36630814
-59725.06889193
-59730.57841876
-59733.24454652
-59734.49533686
-59733.44459804
-59737.54502252
-59737.82037172
-59736.94507671
-59730.35729521
-59737.31706657
-59730.34118869
-59730.61092731
-59742.46412771
-59736.72688675
-59737.82976953
-59733.32347424
-59733.32317194
-59731.33981018
-59726.34927830
-59736.59949579
-59738.02244018
-59729.05793376
-59723.59456579
-59733.44916512
-59731.47188891
-59722.97930979
-59725.63063699
-59733.09710483
-59738.19235315
-59727.51602857
-59722.73379517
-59716.42784917
-59722.29572135
-59723.97433108
-59719.56077156
-59723.18993179
-59712.69662389
-59722.08088814
-59733.20206578
-59736.41000014
-59736.21539224
-59727.59374544
-59728.80140445
-59732.87324955
-59735.54629894
-59731.90326200
-59731.72212882
-59733.19042168
-59730.00523025
-59740.35442836
-59729.74330978
-59729.84059545
-59731.79008811
-59729.01762080
-59737.68781769
-59735.92669986
-59727.22380632
-59733.71157204
-59731.55427502
-59732.36925177
-59730.72497995
-59745.81071336
-59741.70764794
-59732.19380985
-59731.17290462
-59731.12463829
-59737.17907390
-59734.64253127
-59742.33129474
-59724.46699874
-59724.97487579
-59729.08979493
-59727.92978233
-59719.87467789
-59725.36533446
-59726.86802788
-59736.23827761
-59741.72239970
-59738.78906164
-59734.84724397
-59730.40200637
-59734.70903520
-59726.95911773
-59725.16770144
-59725.28409516
-59724.89177907
-59727.02751982
-59727.92209649
-59722.88307008
-59725.98674224
-59733.33246281
-59739.16097865
-59745.71988915
-59737.34593285
-59734.10760705
-59727.56953093
-59731.95135352
-59732.96202784
-59733.15281247
-59728.09334921
-59732.47318831
-59730.87078275
-59729.86353198
-59733.55574479
-59741.80168578
-59752.52228866
-59736.14344386
-59730.57150753
-59735.88804055
-59720.27428451
-59735.99284461
-59732.85209984
-59738.34997141
-59730.23963082
-59730.53706357
-59734.21229157
-59733.29546438
-59731.67281272
-59727.18485354
-59730.96009225
-59731.91077712
-59729.25053860
-59734.99872010
-59734.19708281
-59731.53591951
-59734.26459817
-59731.72586838
-59730.46306997
-59729.16835693
-59732.91468954
-59734.13056228
-59734.01365607
-59727.15405263
-59732.18142320
-59730.70538022
-59732.46182470
-59728.94824786
-59730.50863674
-59731.21543322
-59733.14658593
-59736.39183154
-59733.73687285
-59736.92903214
-59731.22557027
-59728.07323504
-59730.65416330
-59728.27745230
-59732.55622713
-59733.38528607
-59730.86222958
-59704.10847132
-59723.78253103
-59727.76819037
-59726.79755133
-59730.78557350
-59727.62327015
-59727.52207862
-59733.82968497
-59732.46619663
-59733.27998634
-59732.81368266
-59734.53084015
-59728.69397617
-59731.52061859
-59715.79652976
-59727.32537386
-59737.25795637
-59748.13852972
-59738.89972118
-59742.73704297
-59727.23788787
-59724.59397039
-59730.74213608
-59727.44949035
-59735.86153128
-59751.20055309
-59739.47823504
-59731.62808869
-59728.80293954
-59720.28709032
-59730.02717093
-59721.79750835
-59726.82702777
-59729.45759843
-59735.33704394
-59739.50835352
-59734.88136527
-59736.75979250
-59765.90655428
-59742.42612495
-59732.48914043
-59720.60032951
-59735.39226236
-59734.75934322
-59730.90795851
-59726.29685049
-59730.50296782
-59732.68235466
-59731.14927396
-59729.80429955
-59727.28684609
-59730.55217078
-59729.71022587
-59731.85199386
-59729.45212238
-59727.98467449
-59731.31113729
-59730.31537357
-59730.01965929
-59727.95125400
-59729.39956151
-59729.24996844
-59732.43696324
-59732.11546756
-59727.47391296
-59728.18836786
-59732.44810634
-59730.18987470
-59729.00057753
-59724.89586126
-59728.63671754
-59727.59055953
-59724.38973408
-59721.89666110
-59725.89793750
-59729.05994232
-59733.14294866
-59731.87687100
-59742.14830706
-59730.30031581
-59726.38749113
-59729.06721737
-59730.29027648
-59727.02422480
-59730.33041350
-59730.28079267
-59730.58961068
-59731.65419948
-59731.47724006
-59728.78158703
-59727.58668995
-59725.62659080
-59722.14717724
-59721.58405446
-59725.66236090
-59725.34682962
-59724.81270556
-59724.12529829
-59722.96767577
-59724.54113422
-59719.89205833
-59723.93757848
-59722.60638461
-59723.63054784
-59725.70310990
-59716.49466456
-59729.12618886
-59757.35046652
-59750.81749192
-59723.95593746
-59733.36791211
-59731.31514122
-59726.98563609
-59730.89757518
-59728.44216476
-59730.05944039
-59730.41197690
-59725.79982333
-59726.74139063
-59730.07748869
-59732.17036240
-59723.25395546
-59728.85447215
-59732.81622807
-59731.29462563
-59729.15667746
-59732.83753774
-59733.52243250
-59733.81187767
-59731.28192443
-59746.96112110
-59745.50410291
-59738.47796234
-59753.36743257
-59796.04731357
-59754.78180098
-59713.59027986
-59720.71554171
-59725.51660019
-59745.62973162
-59743.05322854
-59734.85978887
-59730.03336881
-59729.43873469
-59722.07032277
-59731.80182032
-59731.47621950
-59729.85289801
-59728.83699628
-59728.77341046
-59728.58800620
-59730.52377938
-59728.37217335
-59732.05674090
-59732.94547444
-59735.97699573
-59728.94959126
-59731.51248271
-59736.97778938
-59732.63615016
-59739.67023459
-59730.73976587
-59733.53928375
-59736.35018966
-59737.99267091
-59733.83310482
-59732.65786439
-59732.20601651
-59730.50473814
-59732.66089396
-59733.16144508
-59732.50701565
-59734.43120610
-59735.15582509
-59736.38169845
-59737.18108314
-59736.21369193
-59733.26132351
-59733.36462055
-59733.34291134
-59734.18941679
-59730.41567055
-59727.57286952
-59725.03324149
-59725.50946025
-59684.76192752
-59708.40634821
-59720.72277950
-59715.03403674
-59734.89063599
-59723.17820774
-59731.50155262
-59729.23404401
-59730.50714922
-59727.76861284
-59735.20474230
-59755.12847890
-59742.06662294
-59734.78435186
-59720.26629506
-59730.84053038
-59726.38321310
-59728.08990613
-59730.53689132
-59734.99538467
-59733.55780582
-59731.45077671
-59730.09818484
-59723.35316995
-59714.36739722
-59728.20908084
-59722.23134486
-59728.34471869
-59731.35612179
-59729.28270120
-59728.15235123
-59733.41343720
-59729.22053478
-59737.92424430
-59728.25289678
-59723.30178434
-59730.42803298
-59729.92394737
-59731.98689664
-59732.89035890
-59733.87807889
-59729.47788134
-59731.43015983
-59732.00682348
-59731.94158893
-59732.48691876
-59732.19403861
-59736.86159660
-59735.77844330
-59731.93669637
-59730.67132835
-59729.75513647
-59721.40422758
-59708.57657200
-59725.28788684
-59732.30775064
-59730.91842581
-59724.16026001
-59735.52807355
-59737.12623162
-59741.26792477
-59741.04186168
-59742.23718355
-59747.26377162
-59742.60288338
-59727.19920815
-59763.98502518
-59738.16928251
-59727.96857323
-59731.96001888
-59738.73827086
-59732.68443469
-59732.57401370
-59730.77495910
-59729.06337515
-59722.00869632
-59732.21913807
-59736.19506535
-59733.21022406
-59741.34524745
-59730.77118373
-59734.10230676
-59737.92882516
-59734.97974605
-59728.21282625
-59728.63705339
-59731.38732999
-59732.86394659
-59726.31665625
-59731.30751222
-59723.49938722
-59724.55838570
-59729.84356292
-59735.82390289
-59730.85254415
-59729.23715878
-59733.20906583
-59730.08649312
-59722.19619774
-59732.26238628
-59727.79106151
-59736.98716608
-59728.84674909
-59724.72104803
-59730.97133377
-59730.97134335
-59732.69466922
-59737.03764543
-59731.63241914
-59736.44336511
-59744.13800349
-59737.13559611
-59773.61606877
-59749.29208737
-59725.23193565
-59734.64184466
-59733.97087684
-59750.63834920
-59727.17925403
-59726.71510651
-59732.04504139
-59730.38019328
-59735.88831054
-59732.60301972
-59732.04799172
-59721.51400812
-59724.77539975
-59733.47933007
-59730.92189755
-59731.04108344
-59734.72182943
-59732.49144154
-59732.74845417
-59732.19403955
-59731.44947977
-59735.72254627
-59738.62358464
-59730.38801062
-59730.24332526
-59725.86795832
-59730.29650979
-59725.58276394
-59728.15863487
-59728.64101399
-59729.85366151
-59728.03374859
-59733.59426802
-59745.95071921
-59728.97626966
-59728.14789152
-59730.54037894
-59730.64343473
-59729.62664795
-59733.64878406
-59738.33926027
-59732.07866818
-59729.65165900
-59732.07062306
-59733.54705187
-59732.12644639
-59732.92273481
-59723.14184294
-59725.63664204
-59727.12238740
-59732.32370092
-59731.08607708
-59732.94457830
-59719.43432688
-59736.67842571
-59739.16520975
-59735.53485503
-59736.49846906
-59868.15052209
-59745.80707770
-59739.70198259
-59740.50753969
-59737.10285585
-59733.02187397
-59735.77179146
-59728.02612477
-59723.41927683
-59721.46852022
-59721.94994679
-59712.36391389
-59713.03538464
-59714.02394554
-59721.50430863
-59722.96779748
-59733.34375185
-59729.73201333
-59734.94740040
-59729.68694258
-59714.64972963
-59723.06395011
-59728.86658448
-59730.24469444
-59725.63325842
-59719.76526672
-59732.66119736
-59734.91626758
-59732.88977350
-59725.02640356
-59729.44677828
-59722.73962275
-59728.00415321
-59729.95962535
-59731.42414216
-59726.86786519
-59730.63585974
-59724.54758761
-59719.84253844
-59722.47771104
-59728.47077849
-59730.97193374
-59735.95637199
-59736.70882515
-59733.51762910
-59737.05697024
-59732.77567989
-59728.57131408
-59746.17797529
-59741.05874879
-59734.96002632
-59728.34999775
-59727.23234261
-59732.63984125
-59729.64607377
-59734.40562522
-59725.52663880
-59719.79351030
-59732.51032578
-59730.84507909
-59727.53940400
-59739.79818704
-59730.22434604
-59716.16190159
-59737.53468047
-59730.23606356
-59735.15329497
-59738.30043112
-59735.09317173
-59732.57604569
-59730.99458857
-59729.06571329
-59730.52404473
-59738.67234358
-59735.29545625
-59732.13456086
-59730.92778968
-59728.89405428
-59734.02703682
-59730.62192145
-59725.42222204
-59728.62883034
-59727.04582406
-59723.85286940
-59727.97826312
-59731.28489524
-59730.11841033
-59734.06797959
-59732.29839142
-59738.09977436
-59735.22625447
-59730.51715882
-59728.44561104
-59734.67488586
-59733.83188757
-59733.36123462
-59728.24826630
-59739.50172417
-59729.64598111
-59734.47070774
-59728.57266879
-59715.25731800