-59724.3691066
-59723.69228166
-59724.7602408
-59716.85335856
-59726.56073142
-59727.78742542
-59724.12510116
-59723.28812566
-59725.95859882
-59723.9125044
-59725.00234423
-59725.06688094
-59723.57022233
-59723.23075105
-59718.4800935
-59724.74997966
-59723.91829205
-59726.64124533
-59715.06127568
-59721.90261089
-59723.74120746
-59721.09008092
-59724.98072561
-59725.91911577
-59725.18379118
-59723.82460909
-59725.9669218
-59722.81158788
-59726.47530017
-59722.12106096
-59727.12171292
-59724.23215714
-59720.3081479
-59722.49721682
-59721.58472077
-59723.81743299
-59720.24752757
-59722.46400214
-59723.33873802
-59725.86833045
-59727.95649427
-59725.82496738
-59724.79995494
-59721.54756933
-59714.83472016
-59724.78565841
-59717.16478076
-59723.20734533
-59723.80993677
-59721.29807877
-59726.34003844
-59723.8974207
-59724.22669674
-59721.36596583
-59726.89561668
-59719.48125999
-59724.84300275
-59720.65110635
-59727.36294111
-59721.54023606
-59720.69905945
-59723.06197583
-59716.19782316
-59724.11191938
-59725.36937666
-59719.69621323
-59723.61438478
-59724.26507472
-59725.47828746
-59721.56784988
-59723.02881125
-59726.69631347
-59724.3160342
-59726.32075677
-59725.16435976
-59723.31400321
-59724.1296488
-59725.75178797
-59721.82314291
-59721.73445157
-59724.65285014
-59724.26890053
-59721.88718174
-59719.16239937
-59721.62337995
-59721.93955098
-59721.78543735
-59722.28168953
-59724.23913196
-59725.64411771
-59724.88524163
-59720.64535559
-59721.35748865
-59725.21561989
-59724.12034746
-59721.29503689
-59724.21946905
-59724.52262753
-59717.65718178
-59723.41638403
-59725.67621957
-59720.38778713
-59720.89541397
-59723.87815827
-59722.0427749
-59725.42242581
-59721.76432346
-59719.40949814
-59722.44464732
-59723.34350028
-59721.43001408
-59725.92527622
-59724.84742855
-59722.31417041
-59723.37329974
-59723.80303826
-59726.29443838
-59721.45101793
-59723.45080255
-59723.16540803
-59723.12063553
-59726.08300234
-59724.51916097
-59721.28348328
-59722.33115822
-59721.76033528
-59723.3389939
-59722.62589782
-59724.7510458
-59719.08899834
-59723.96914967
-59722.90425015
-59724.13785831
-59724.94903097
-59708.8109629
-59716.88288253
-59722.44004756
-59720.96917792
-59720.58429092
-59725.08291945
-59724.83910485
-59723.42559078
-59720.85447834
-59724.42585818
-59721.68721343
-59721.31881229
-59720.73267998
-59722.70437879
-59720.95338095
-59723.81082964
-59723.6048968
-59723.91156376
-59725.71175322
-59721.77204173
-59725.88594671
-59722.21267418
-59725.93869329
-59721.80144442
-59723.8044953
-59727.41752843
-59725.23414378
-59720.06703802
-59721.27880454
-59724.66117714
-59723.67154541
-59722.26660068
-59722.72683898
-59724.24696746
-59723.62344012
-59726.56279061
-59722.66870703
-59725.46840011
-59723.60949875
-59725.07538508
-59725.51217135
-59723.58452805
-59723.58907038
-59721.34501223
-59726.06877586
-59724.40966916
-59722.31325391
-59721.62096555
-59722.36936922
-59722.89788153
-59725.21505844
-59725.68925155
-59725.75184624
-59727.15220506
-59722.36463149
-59722.88163831
-59718.75365445
-59724.96803725
-59719.46456979
-59726.74105334
-59723.54510333
-59721.5665958
-59722.54630944
-59720.73981225
-59723.89713981
-59723.80923114
-59723.72879136
-59722.02236187
-59724.85294317
-59724.87927822
-59724.87357736
-59722.89418084
-59723.74601981
-59721.07092889
-59724.73892969
-59723.93232607
-59723.22102196
-59721.43486706
-59723.47262255
-59723.5392215
-59717.06604964
-59724.47783001
-59723.67198813
-59725.53395476
-59724.76582267
-59724.34865725
-59718.4436317
-59725.91251736
-59723.4553886
-59725.6017572
-59722.0808715
-59724.68365606
-59723.89065984
-59724.04551092
-59723.94249985
-59723.54830457
-59726.91301815
-59728.27558142
-59723.9286496
-59723.08686785
-59723.25544062
-59719.65576092
-59723.53492316
-59724.30721743
-59722.26701145
-59722.4268677
-59725.25959361
-59726.48330134
-59724.81837042
-59720.90487518
-59724.96754469
-59720.48637779
-59723.90688193
-59723.77284449
-59724.47684751
-59718.95898188
-59727.80849022
-59727.94478656
-59724.37874058
-59723.80500881
-59724.50410194
-59718.98313587
-59726.11851667
-59722.32308839
-59727.15540652
-59723.1273187
-59727.99438602
-59719.85622141
-59719.05300411
-59722.59596951
-59721.99326496
-59721.93211092
-59722.81814776
-59725.12512804
-59725.53265468
-59724.80197104
-59722.86087336
-59723.36037993
-59725.90398275
-59724.30218695
-59720.46160383
-59727.38510924
-59724.80052846
-59720.59872689
-59718.05081479
-59724.92463646
-59719.09896611
-59724.18460717
-59726.1164463
-59721.64078204
-59725.0229319
-59724.81461133
-59724.65016964
-59725.47318802
-59723.55514386
-59723.85375646
-59727.73185861
-59718.57295787
-59719.34211217
-59724.64289449
-59723.74251737
-59723.92466897
-59722.57537317
-59724.8102107
-59726.58805236
-59725.37616486
-59724.30248502
-59722.17408539
-59724.31942129
-59723.00251017
-59725.51775025
-59725.89743972
-59722.3208592
-59720.29632896
-59728.30661901
-59726.3587393
-59722.97860198
-59726.62430793
-59724.34506548
-59724.80405767
-59726.23169346
-59723.48091058
-59719.70890995
-59721.60131822
-59725.97200907
-59724.81171077
-59717.36270595
-59726.04555947
-59722.16423068
-59725.09978051
-59724.26816983
-59719.71814094
-59727.25940319
-59723.08896131
-59722.71573014
-59721.96521768
-59724.44978854
-59724.31923653
-59721.13202256
-59723.21875089
-59720.54886989
-59723.96237003
-59709.28556847
-59724.32661085
-59722.81617817
-59729.46147749
-59722.247684
-59723.25465074
-59718.80949205
-59725.0155619
-59719.30075022
-59718.47104516
-59723.60564988
-59723.82568481
-59722.55019065
-59722.22875981
-59711.32875064
-59725.94980593
-59726.15689765
-59724.4509703
-59727.90154488
-59722.66392038
-59724.42140335
-59724.06252891
-59722.80794708
-59724.28832077
-59723.77412917
-59725.43740767
-59720.41392081
-59722.01833079
-59723.86986597
-59724.44051245
-59724.55516093
-59722.62550103
-59720.36324213
-59723.80571654
-59722.54522721
-59724.88100772
-59725.26307977
-59722.83462612
-59724.26333716
-59725.79145373
-59724.46533252
-59720.69693571
-59724.42172828
-59725.14696939
-59726.9551187
-59720.83568294
-59722.39017177
-59729.03759027
-59726.63197563
-59725.77809639
-59723.93767802
-59724.98571029
-59724.37709084
-59726.4227352
-59720.74484989
-59725.68671425
-59721.4532806
-59721.35973386
-59721.73091924
-59722.18930775
-59725.80596102
-59720.29152932
-59726.08356318
-59723.57929243
-59722.6934713
-59718.9956407
-59725.40265692
-59721.03728415
-59720.80832256
-59723.52992415
-59724.22480214
-59722.5424387
-59721.47784223
-59724.77545456
-59723.98164531
-59722.44626868
-59725.04650626
-59721.79177279
-59723.52119895
-59724.30835386
-59725.65336453
-59723.84458636
-59720.88291505
-59725.3681532
-59722.28753978
-59720.27631507
-59725.41161694
-59722.74612508
-59722.75167382
-59724.52325903
-59725.92215156
-59725.6472189
-59723.2677095
-59723.09850433
-59725.26029421
-59726.45388435
-59723.9609331
-59727.83863533
-59720.63648186
-59722.50799515
-59725.93199964
-59724.45442936
-59721.23854391
-59722.97653872
-59723.07530948
-59724.81143775
-59724.82345033
-59724.30742164
-59716.05664864
-59727.45732986
-59717.99027669
-59722.33295666
-59726.21065593
-59723.1471454
-59721.33022146
-59723.05127518
-59727.43077429
-59723.36216067
-59722.85207016
-59722.3264507
-59726.25811695
-59724.59703528
-59722.86327497
-59726.84565074
-59721.82083057
-59726.13631217
-59727.06111944
-59722.96376444
-59725.15228413
-59724.8914753
-59720.63187509
-59720.16885599
-59718.77153116
-59724.52116113
-59726.94651075
-59724.88296748
-59725.4968029
-59724.29895824
-59725.91764808
-59724.04022024
-59725.57398473
-59725.167448
-59725.65121231
-59721.03273429
-59720.52371856
-59722.74933774
-59724.20073516
-59725.03575985
-59727.03666625
-59722.97893831
-59721.51171752
-59721.40616963
-59719.54403287
-59718.17053547
-59724.15779123
-59722.5127042
-59722.423371
-59724.11869572
-59719.95051666
-59723.52825289
-59717.78549374
-59725.08735344
-59727.08514076
-59723.30579467
-59722.86732833
-59722.54558084
-59723.14690379
-59723.31068107
-59721.62555337
-59726.13627515
-59719.35950407
-59723.83737635
-59725.0504693
-59724.605035
-59720.39880153
-59723.57793858
-59722.99277899
-59722.09485526
-59720.00950518
-59721.49760683
-59718.89056926
-59723.10127177
-59726.14538441
-59722.62155031
-59721.13631301
-59723.00774474
-59724.45800378
-59723.65295972
-59725.84663769
-59721.13619627
-59721.89187387
-59723.06256914
-59719.86801408
-59721.42584408
-59721.0971877
-59722.62903881
-59725.0632443
-59722.74567804
-59724.72964614
-59722.08431448
-59726.06688085
-59725.58129976
-59719.85012327
-59724.38295957
-59723.79301542
-59723.684959
-59724.28029706
-59723.51881063
-59723.87977644
-59722.86033174
-59724.9335786
-59722.32830895
-59719.12853894
-59721.8179495
-59724.71580626
-59723.26555753
-59721.05029031
-59721.78205717
-59722.67360442
-59723.58183999
-59724.93209089
-59719.91763906
-59724.04721573
-59723.37654552
-59722.8489036
-59726.86668973
-59722.25270552
-59727.81635568
-59722.45412973
-59725.20688134
-59719.30840818
-59722.97811249
-59723.78556699
-59722.99892022
-59720.63479856
-59720.32639467
-59723.08024582
-59721.11197385
-59721.5230907
-59725.15879516
-59719.74975722
-59726.06708095
-59723.54160552
-59720.85059073
-59721.5743306
-59725.73974116
-59725.40338611
-59723.47977603
-59724.77131507
-59723.55877966
-59721.24059728
-59723.86707127
-59723.93911983
-59724.05748817
-59725.0587671
-59723.59698425
-59722.78460942
-59726.11101866
-59723.16740482
-59725.69154926
-59727.08608536
-59719.00336441
-59723.93806581
-59722.70864541
-59725.47465616
-59725.39230515
-59725.0908032
-59726.66302261
-59718.07350952
-59724.96903866
-59724.38604636
-59720.12839528
-59720.52120992
-59723.37866395
-59714.59854088
-59726.26811981
-59720.37042635
-59724.79915463
-59719.02374497
-59724.89935847
-59720.13297772
-59725.34369776
-59722.75192806
-59726.48070949
-59722.7696141
-59722.16931896
-59723.27767329
-59722.36215057
-59722.83648512
-59723.51267624
-59724.98241459
-59723.07603555
-59721.85515269
-59722.74660886
-59723.23850021
-59723.60357291
-59720.34047409
-59726.17702918
-59721.87059277
-59720.58300404
-59725.17841911
-59722.43416923
-59727.45586409
-59720.55252392
-59723.87313316
-59721.84139002
-59724.18821019
-59722.90782993
-59723.5725099
-59724.01294732
-59721.79208792
-59724.28043016
-59725.66608739
-59726.02481069
-59724.95957802
-59722.05408753
-59727.88526117
-59722.88241154
-59723.91440086
-59721.70592774
-59725.46980064
-59722.45155876
-59723.07902042
-59717.50413212
-59721.42862669
-59726.57853055
-59722.7862792
-59719.90926556
-59724.28026317
-59724.94492378
-59725.52558073
-59723.17114052
-59728.1294698
-59723.37166034
-59724.44922787
-59722.94952567
-59725.07359647
-59724.11272711
-59722.81658596
-59719.42769491
-59721.75015098
-59720.46784944
-59719.89220228
-59723.70733426
-59724.79666466
-59723.22477863
-59724.59033885
-59721.46785391
-59723.59011908
-59723.4628895
-59721.93705337
-59722.81481916
-59722.64995716
-59720.27424843
-59725.92527623
-59723.64634782
-59724.98000295
-59725.12856285
-59724.33954252
-59722.92223898
-59721.62135999
-59725.18429576
-59715.62257903
-59722.4453584
-59728.5441372
-59726.52847918
-59727.5019507
-59725.37617016
-59724.52139831
-59724.70066217
-59721.93556024
-59722.41212943
-59722.5231449
-59725.33206633
-59726.51271125
-59725.91224887
-59713.41879846
-59724.28538925
-59722.06824876
-59721.04174288
-59727.62530903
-59713.38479656
-59723.0970421
-59720.78440607
-59728.3938281
-59725.71429818
-59724.08289254
-59722.42343451
-59723.82591569
-59723.61637242
-59723.84067535
-59717.07941385
-59721.32321123
-59723.64653149
-59715.92834818
-59725.88101922
-59726.70699039
-59722.20531456
-59722.05031517
-59725.29870702
-59721.17215541
-59723.88020391
-59727.25152185
-59721.57386325
-59726.72644026
-59724.34290057
-59723.9281276
-59721.83626248
-59718.89329884
-59723.41173862
-59723.26140753
-59724.81968518
-59723.18224573
-59724.40554023
-59724.49596621
-59724.06054653
-59721.83645588
-59725.4438625
-59723.55251439
-59723.56911906
-59723.59824829
-59722.19048508
-59723.61290211
-59725.95412611
-59724.46824614
-59724.3865672
-59725.5917101
-59720.80961535
-59722.92011273
-59723.04677086
-59725.64030756
-59723.73598871
-59727.05883193
-59724.3511212
-59724.35482256
-59722.18469109
-59723.31211698
-59721.59396804
-59724.30473051
-59720.705155
-59724.49718302
-59721.12549165
-59723.70231559
-59724.538638
-59724.40943917
-59722.36975301
-59723.42781193
-59723.9299539
-59724.14477589
-59724.8578456
-59726.89103983
-59723.0400996
-59723.12553385
-59723.4447281
-59722.50137871
-59728.59994793
-59721.95455752
-59723.84858096
-59725.5248377
-59727.97229784
-59720.75977448
-59726.56371949
-59723.02186406
-59717.38466922
-59728.27986084
-59726.38279705
-59722.30874753
-59725.71553431
-59721.96775285
-59723.05521671
-59725.89633707
-59726.96110056
-59723.1817137
-59724.3490693
-59723.12343055
-59723.02574643
-59723.44575549
-59722.70877247
-59724.48317072
-59723.14474505
-59723.45191257
-59722.24997868
-59724.19150883
-59720.23972519
-59725.52430921
-59721.06750435
-59723.47745581
-59722.71010806
-59720.89982536
-59724.47676688
-59724.55129823
-59718.55495836
-59724.25928716
-59724.09680566
-59723.81342889
-59725.10609726
-59723.51826295
-59721.5312277
-59724.39751443
-59721.63121784
-59724.36348473
-59722.35211569
-59727.84566574
-59723.46213136
-59725.17554122
-59724.52549816
-59723.24753019
-59724.34069115
-59724.06702598
-59722.71895775
-59725.16260451
-59724.60214976
-59722.91566168
-59726.17658413
-59723.01744784
-59720.61141681
-59721.27268771
-59722.91463995
-59721.25330879
-59721.44642097
-59720.81642979
-59722.23347899
-59721.05657656
-59721.19852921
-59721.68046643
-59726.68477414
-59725.02340311
-59722.53865349
-59722.89261666
-59723.63325819
-59723.41702526
-59716.68957632
-59720.22897693
-59721.2765772
-59721.22470378
-59722.95811144
-59722.913619
-59724.63269195
-59725.3291434
-59726.75519669
-59725.39669047
-59720.17879984
-59721.93706587
-59724.33381795
-59720.2692001
-59727.82101608
-59720.21651987
-59723.08735815
-59724.8110222
-59722.01899662
-59726.7422296
-59723.38643531
-59720.79288816
-59725.82945817
-59724.66623812
-59726.57452954
-59722.21635776
-59720.62845095
-59723.62574735
-59721.64172507
-59723.68593914
-59723.917873
-59722.21189279
-59721.26810722
-59722.10853936
-59721.10809359
-59724.21243504
-59725.24611671
-59722.28880413
-59726.18962072
-59725.03464145
-59723.68867936
-59723.51753734
-59725.23920337
-59725.75364034
-59721.11418499
-59723.75538046
-59725.06244025
-59725.7795836
-59719.52331234
-59723.67761599
-59724.32102511
-59725.49832759
-59725.18573561
-59716.40032879
-59724.46945934
-59722.85512011
-59719.9868098
-59723.07228172
-59722.89742187
-59722.27898431
-59725.61136656
-59720.35610706
-59722.72933762
-59723.35271415
-59715.21656142
-59722.1144861
-59722.95686203
-59724.45529151
-59725.09297644
-59720.3368778
-59725.58372805
-59722.69334708
