-59708.08210786
-59721.83626248
-59723.11528732
-59722.25270552
-59721.98907127
-59727.81532796
-59723.12482155
-59721.57900856
-59722.61553194
-59721.99268979
-59726.26574899
-59726.94941648
-59723.20885144
-59724.53311205
-59722.82992031
-59724.16435952
-59723.43843478
-59722.89829323
-59724.61493239
-59722.82905852
-59729.34469009
-59723.51727974
-59721.57045778
-59725.4960974
-59723.77542995
-59725.58909942
-59723.87512118
-59723.16484442
-59724.12021237
-59726.77634231
-59723.14690379
-59726.10024701
-59723.54536708
-59722.30455833
-59722.8130764
-59725.1357053
-59723.77741629
-59723.88001234
-59727.16964671
-59722.02218232
-59728.26531584
-59723.22368522
-59723.7669708
-59724.84354437
-59725.36918952
-59724.26132979
-59724.39244187
-59724.76074879
-59725.03787553
-59724.25518428
-59725.34839627
-59723.37320096
-59722.3379954
-59721.13597341
-59725.3700963
-59723.58908934
-59724.22871545
-59724.53579186
-59723.79038134
-59721.4734689
-59725.66967949
-59726.00999869
-59720.3878425
-59722.89991541
-59730.51120531
-59726.43412007
-59723.80466831
-59721.9290131
-59727.29060607
-59722.66958454
-59725.09243926
-59728.71425946
-59724.51672157
-59722.53406673
-59722.89189934
-59723.00099793
-59721.4551935
-59725.5587051
-59724.43162323
-59726.06246479
-59727.15242735
-59723.76222265
-59723.76803134
-59723.83764628
-59722.84021754
-59724.79960378
-59723.71229584
-59721.3649942
-59721.90525957
-59726.81284421
-59725.17728
-59723.11723264
-59727.5018064
-59726.54829299
-59726.79345063
-59726.75939417
-59726.01697537
-59725.13384851
-59722.73692912
-59720.61350356
-59721.93142932
-59723.5643386
-59723.8083169
-59725.79417554
-59725.44346257
-59727.23436725
-59723.05514279
-59727.06675462
-59719.55129622
-59722.90270922
-59725.67892252
-59725.99859788
-59727.15376577
-59726.75890901
-59724.74758927
-59725.83836196
-59724.82928854
-59724.48593713
-59722.14487229
-59724.51570073
-59728.21401948
-59724.19150883
-59726.90749343
-59723.76483122
-59726.61790156
-59723.23371833
-59720.75714021
-59726.83376737
-59725.23999931
-59725.51025897
-59722.23628321
-59726.50963566
-59724.9057577
-59725.3845738
-59724.90730118
-59725.26029421
-59725.31901919
-59724.20339887
-59723.08942559
-59724.249217
-59722.18815718
-59725.41702651
-59725.36012262
-59724.82987077
-59723.22873765
-59728.45580917
-59727.01318031
-59723.16962913
-59726.79679778
-59726.69742085
-59724.5363903
-59723.17136558
-59724.55975764
-59722.62980444
-59724.3974919
-59726.52535954
-59722.74242867
-59722.68641221
-59722.98241666
-59725.75159511
-59725.93003873
-59720.56410663
-59725.05480015
-59723.5988226
-59724.89205716
-59718.7115771
-59726.82858607
-59723.98360704
-59723.82393044
-59723.81342889
-59722.88556587
-59726.25210992
-59723.12073557
-59722.94997185
-59724.84300275
-59722.57720525
-59723.72430208
-59720.44754332
-59721.15475961
-59726.76450854
-59727.31183406
-59725.37041366
-59726.42753574
-59724.00051897
-59725.67617076
-59721.77441309
-59726.77380101
-59723.77684155
-59727.6087366
-59726.02019858
-59724.74840895
-59727.0112758
-59725.10767272
-59725.5453867
-59725.48461197
-59724.20940437
-59724.12218285
-59722.44262941
-59725.51149374
-59724.94940809
-59721.3012104
-59725.97624165
-59726.65523544
-59725.17791922
-59723.5486354
-59726.23554857
-59727.80981177
-59724.06046174
-59720.79959551
-59722.48096987
-59724.19153579
-59726.85401394
-59725.51463303
-59724.08286763
-59723.22670656
-59725.60161248
-59721.57259494
-59723.72945268
-59723.3666159
-59725.03817332
-59722.69081573
-59725.20613055
-59725.36936778
-59722.47135969
-59723.86568155
-59728.67896734
-59722.02253606
-59723.41305661
-59723.09479087
-59722.58123378
-59726.67717397
-59723.25145097
-59723.10155132
-59724.16512071
-59721.17288241
-59727.4734579
-59725.09037765
-59727.34099213
-59722.10137533
-59723.96340992
-59723.35211043
-59724.65905914
-59725.47847009
-59726.04849261
-59725.08734589
-59723.67872806
-59725.9129054
-59722.99277899
-59725.66954902
-59724.28898356
-59719.93733792
-59725.23960682
-59724.21489483
-59724.17742245
-59724.6883287
-59724.86914003
-59724.33259498
-59728.28914989
-59725.35312292
-59724.24924654
-59723.62388631
-59724.67519185
-59719.63797681
-59724.56903141
-59724.96839026
-59726.44538986
-59726.84312881
-59725.0485713
-59723.86486973
-59724.0387164
-59722.73464672
-59727.18377543
-59724.25626402
-59725.36357224
-59723.57718435
-59721.22222651
-59720.92171229
-59724.77704735
-59723.4390758
-59724.37926028
-59725.07230076
-59722.66163224
-59725.24550778
-59722.35035851
-59724.32289907
-59725.79051616
-59722.48828075
-59724.69038287
-59721.52073598
-59724.66418845
-59727.04388046
-59723.66593055
-59725.95456447
-59723.11560028
-59723.92270646
-59723.06107208
-59724.89253261
-59723.77403565
-59725.70211113
-59725.48655577
-59727.48355681
-59728.9419112
-59727.15173385
-59724.32819065
-59723.26380233
-59721.09431838
-59726.46859934
-59720.49322316
-59723.28573655
-59724.35779814
-59723.09523772
-59721.43486706
-59725.97837735
-59724.17731862
-59722.06954801
-59723.32604797
-59723.16214971
-59724.22816876
-59722.99897678
-59726.71244538
-59723.02674871
-59725.87017201
-59726.05055571
-59725.0103871
-59721.03412009
-59725.43704503
-59722.38685718
-59722.54834317
-59721.50495931
-59724.67512858
-59725.05059218
-59723.49814252
-59725.78139098
-59722.98053819
-59725.11580492
-59722.54163395
-59724.31423108
-59720.6121067
-59726.53615061
-59723.4127769
-59722.92300423
-59723.20350787
-59722.51183519
-59723.77020101
-59727.87621317
-59724.79589211
-59726.85286913
-59724.16851003
-59723.5368268
-59725.25716331
-59722.97140229
-59725.91251736
-59726.4844937
-59727.08731017
-59722.48661786
-59723.29458711
-59725.91355428
-59725.31897063
-59724.32341482
-59725.337668
-59722.73381375
-59723.26178735
-59724.08163575
-59724.27209543
-59721.40822611
-59724.39168448
-59725.84448806
-59727.69972096
-59724.44932673
-59723.81870825
-59726.33785332
-59721.66829696
-59728.1287228
-59725.04350271
-59724.83336891
-59722.75423807
-59722.65010359
-59722.91446183
-59727.72560282
-59720.03693432
-59722.77075271
-59727.38839343
-59722.80113955
-59723.22227656
-59725.28125443
-59726.9194731
-59726.88543049
-59724.03095149
-59724.35582945
-59721.87750311
-59723.44489917
-59724.39405417
-59725.73191764
-59724.4134677
-59723.94410791
-59724.35802271
-59722.95988414
-59724.04972163
-59724.48269117
-59726.30581201
-59724.75760292
-59725.95532178
-59719.45271185
-59721.95391941
-59727.12207964
-59725.07802861
-59721.93706008
-59724.97424177
-59724.7305475
-59723.20981683
-59723.22445132
-59722.88344009
-59725.7553342
-59723.8368909
-59725.08845943
-59724.97566979
-59724.54642205
-59725.37412139
-59723.92909461
-59725.26207535
-59727.18810946
-59723.57668909
-59721.56618962
-59725.67478404
-59726.66104219
-59723.96948607
-59722.51318922
-59725.63749403
-59719.6166307
-59724.81855042
-59724.84742855
-59727.07098997
-59721.11444665
-59727.19158598
-59728.65113768
-59725.67000467
-59720.3610735
-59724.87066749
-59722.04233866
-59721.65646226
-59722.46036688
-59721.81918334
-59726.59474272
-59726.65594418
-59722.67228865
-59725.09042239
-59724.42999689
-59722.6364148
-59724.27864283
-59722.20420499
-59725.10253416
-59722.43151154
-59727.40034443
-59721.0758867
-59725.34601328
-59725.22671116
-59722.94825905
-59724.69702307
-59724.06414237
-59722.50374372
-59723.74601945
-59722.69401144
-59724.21399573
-59724.23845272
-59726.10697631
-59726.69182157
-59723.60451979
-59724.223545
-59725.06950891
-59726.95056438
-59721.97620577
-59720.96917792
-59724.4936197
-59722.80549267
-59723.02263235
-59725.98946496
-59725.60220862
-59721.99613572
-59722.73006568
-59724.16622487
-59721.75447564
-59723.38036878
-59725.47465616
-59722.07381773
-59726.06070075
-59724.86021744
-59724.64092457
-59723.53581801
-59722.95706809
-59725.32983734
-59723.43206996
-59724.73678913
-59723.89353872
-59725.00856139
-59726.67584992
-59723.88849038
-59724.38228611
-59721.66372857
-59724.11397737
-59722.27860729
-59722.39705637
-59725.32710445
-59722.81746067
-59725.04447196
-59719.05382394
-59723.99919793
-59724.44227519
-59722.69529475
-59723.39005587
-59723.79572828
-59722.5231449
-59724.09147388
-59723.76743592
-59722.23851378
-59723.07603555
-59726.24852589
-59723.72131794
-59725.787242
-59725.85987593
-59721.29807877
-59724.1529365
-59723.24319819
-59725.54142803
-59724.56740123
-59726.79215997
-59724.05896082
-59723.88007855
-59722.159242
-59725.2008837
-59723.98242379
-59724.7035386
-59722.92283829
-59725.7913192
-59725.81723722
-59722.83462612
-59719.95051666
-59725.61029268
-59726.55002522
-59727.06215408
-59721.7701181
-59724.93253316
-59725.48159195
-59725.27830737
-59726.33107934
-59721.73090852
-59722.15324665
-59723.27791053
-59723.53572621
-59721.43694024
-59724.69488262
-59723.89853577
-59721.10520061
-59721.99009389
-59724.6559723
-59722.17886915
-59721.9289144
-59725.51096209
-59719.64029779
-59725.21353078
-59722.74180222
-59724.31351224
-59726.16885726
-59724.32102511
-59726.47530017
-59724.06294063
-59726.37223603
-59725.00972058
-59724.65906869
-59724.24404271
-59719.15820913
-59721.93534718
-59727.23203367
-59725.982095
-59724.35355596
-59723.31530458
-59721.03273429
-59724.79122117
-59724.5627079
-59725.42305764
-59723.76597599
-59724.1214196
-59725.4625617
-59723.11622198
-59727.57646524
-59727.28688574
-59722.71425801
-59724.12769824
-59722.72019729
-59724.31855381
-59724.51631125
-59726.58932296
-59726.09976237
-59724.78010434
-59722.50687818
-59725.23549062
-59726.14806796
-59724.10994255
-59727.41654567
-59720.74317728
-59725.83802636
-59725.53488317
-59723.39625042
-59726.05521295
-59726.11192955
-59726.1758492
-59721.27880454
-59724.62206072
-59722.47673286
-59723.99656967
-59722.4541199
-59724.99284273
-59725.04465129
-59722.01811785
-59726.31819066
-59726.19291998
-59727.1039203
-59724.44560968
-59724.37861554
-59726.47219226
-59724.20208927
-59722.78851015
-59723.09492931
-59725.06094074
-59725.43093569
-59723.22204153
-59726.70884673
-59725.17096014
-59723.8044953
-59724.3179209
-59721.02658597
-59723.88359648
-59725.901112
-59725.85361549
-59722.77598256
-59725.22640338
-59722.8857394
-59727.85472503
-59712.58710392
-59723.86380378
-59725.04687192
-59725.37970498
-59724.82560492
-59722.1431577
-59726.52635004
-59724.95470854
-59728.11605091
-59724.28222612
-59724.54159423
-59725.50022017
-59722.71231587
-59724.57860699
-59723.47412996
-59723.61960508
-59725.62657226
-59722.00275547
-59724.76333921
-59725.42630974
-59726.29850948
-59724.61169253
-59724.10484294
-59724.76151194
-59722.26289337
-59725.25747755
-59727.56993838
-59723.17404537
-59723.43889821
-59725.44172056
-59724.77993928
-59726.1148937
-59723.47593523
-59723.09398433
-59724.85691277
-59720.62581234
-59722.73713938
-59725.48043062
-59723.56767113
-59725.12634459
-59720.00950518
-59726.1476949
-59725.90164805
-59726.47219724
-59728.37422215
-59722.69284868
-59724.64260529
-59725.03030166
-59724.36503503
-59724.12723235
-59728.11240043
-59722.36738204
-59723.29937913
-59722.4790244
-59726.50260846
-59725.94451812
-59726.07859527
-59726.59736128
-59726.02036292
-59725.4694994
-59725.15434005
-59723.50709686
-59725.65926016
-59723.73117704
-59728.51016221
-59725.96243596
-59727.17303179
-59723.81386577
-59722.92317596
-59723.2475228
-59727.62654917
-59724.10475579
-59726.35815364
-59722.46618882
-59720.87142888
-59723.82552854
-59723.25555865
-59727.15177983
-59719.79827533
-59724.82733583
-59726.21495862
-59724.27328024
-59724.94067776
-59725.20948317
-59726.62895459
-59721.43031394
-59726.54980767
-59720.87631228
-59721.96521768
-59722.46779934
-59720.76179372
-59723.89919818
-59729.68478834
-59725.37133705
-59726.22675059
-59727.71888002
-59722.43140381
-59725.2975068
-59727.67149443
-59721.39545751
-59724.50661815
-59724.68329095
-59723.68051522
-59722.24430618
-59723.29707695
-59724.4834832
-59727.27016106
-59727.91083554
-59722.5849371
-59723.89695707
-59726.45942317
-59722.65684601
-59724.81567542
-59726.42305535
-59723.51100728
-59721.70729527
-59726.98982542
-59724.87393458
-59723.45779619
-59724.04160891
-59725.46091368
-59722.54248905
-59722.09138927
-59727.35221705
-59723.73390544
-59728.65764247
-59723.64634782
-59728.37325222
-59729.67325571
-59724.11248382
-59723.23454768
-59723.56559511
-59725.98189747
-59724.42585818
-59722.77732594
-59723.45810737
-59725.07538508
-59723.51922512
-59723.02574643
-59724.57811603
-59724.39656634
-59722.33477813
-59721.50145272
-59719.99233108
-59727.83177674
-59722.1104122
-59726.89881991
-59723.37212647
-59726.94027575
-59723.54774262
-59722.36112652
-59727.33390949
-59723.62344012
-59724.78816944
-59723.50182431
-59725.35408098
-59726.4771839
-59724.55877862
-59723.57198591
-59724.40550789
-59723.25403171
-59724.36067606
-59724.88052981
-59722.17381007
-59723.32410626
-59726.39401119
-59723.92061377
-59726.35497323
-59724.49596621
-59727.2467969
-59721.46526003
-59725.88492984
-59725.51825807
-59725.60958435
-59725.97583787
-59721.35507929
-59723.16227327
-59727.93087781
-59724.5101544
-59723.25416051
-59723.77708814
-59725.07773347
-59725.33898142
-59722.75828764
-59720.1043204
-59725.1190545
-59725.78005863
-59710.6656386
-59721.88347064
-59725.6898399
-59724.67255669
-59722.6337779
-59724.05293715
-59725.51977793
-59726.29401967
-59725.2762298
-59725.15825803
-59720.84537594
-59719.48125999
-59724.03937203
-59726.56458052
-59723.78745191
-59724.55326938
-59723.28413845
-59721.83792238
-59720.96992847
-59726.69031669
-59726.71956466
-59724.2808609
-59726.8437413
-59722.72282283
-59724.67854155
-59726.32549126
-59727.30737254
-59726.79254309
-59723.67154541
-59723.03751845
-59724.51965463
-59722.41195372
-59722.68100833
-59723.22976724
-59724.58950134
-59726.18801042
-59727.21991941
-59725.14058459
-59720.51458375
-59725.14397557
-59721.63457444
-59725.50560174
-59725.64395361
-59723.41527541
-59726.4251252
-59727.24083303
-59726.29768602
-59724.35258069
-59724.72897478
-59724.69570434
-59725.6002048
-59727.74885262
-59722.1607938
-59724.46192441
-59726.91946758
-59724.3490693
-59723.7277637
-59724.04682878
-59726.70645816
-59727.0641692
-59726.34982376
-59726.73155605
-59722.05934699
-59724.37476785
-59725.42240142
-59721.51199695
-59724.74311229
-59723.55876054
-59723.12580604
-59723.44909572
-59723.01936097
-59720.0397972
-59721.24947231
-59723.82646214
-59724.98952219
-59726.72702261
-59720.56445676
-59721.94327651
-59725.21465558
-59723.47118108
-59727.4801502
-59723.47977603
-59724.48561226
-59725.67628719
-59723.93245255
-59722.01899662
-59724.81203482
-59723.50614131
-59725.74694016
-59725.49790288
-59723.34413935
-59723.62983014
-59724.89263073
-59722.3977023
-59726.62516363
-59725.02588691
-59722.70215949
-59725.47633331
-59726.69458562
-59722.67843593
-59724.10796868
-59726.48405418
-59723.14268474
-59725.01129741
-59724.97117091
-59721.03412009
-59722.5034287
-59723.70640446
-59725.28347558
-59721.80203938
-59724.35588999
-59721.85641847
