-59718.18789559
-59723.03197789
-59723.42357851
-59725.39811936
-59722.41313747
-59723.70625193
-59722.65647181
-59721.79405734
-59720.52518036
-59723.55963657
-59722.92865708
-59726.19041523
-59715.93411516
-59724.26275682
-59724.0200453
-59722.54261159
-59716.69236011
-59723.54911696
-59720.00441524
-59719.95452297
-59723.38743845
-59721.55858943
-59723.53755835
-59723.21426672
-59724.65474882
-59726.07871273
-59721.31995146
-59724.82787891
-59724.13981272
-59723.98637276
-59724.50294463
-59723.06113819
-59724.50660137
-59722.09377856
-59725.83547526
-59716.40471887
-59725.88222538
-59724.55020525
-59724.45800731
-59724.4570945
-59723.05176979
-59724.42495709
-59721.54107429
-59723.03052819
-59722.83145037
-59720.55574643
-59723.44839817
-59722.92865708
-59725.05365187
-59725.77446206
-59726.81853573
-59715.88800552
-59722.14742438
-59723.0973571
-59717.90099827
-59727.07003882
-59724.65474882
-59725.60541987
-59724.94581089
-59723.1240741
-59720.70427991
-59722.92865708
-59724.92499596
-59721.79405734
-59721.42684281
-59724.28230127
-59717.05085627
-59719.22420678
-59727.2543473
-59723.41878318
-59721.26977555
-59724.87114601
-59721.79405734
-59722.92865708
-59725.09109805
-59723.85453737
-59726.74495587
-59725.09574012
-59723.12076656
-59724.47355557
-59720.89694433
-59717.27716536
-59717.72326601
-59722.21291673
-59722.97121076
-59725.03389119
-59721.79405734
-59720.04446977
-59725.80787267
-59724.13465945
-59722.58428732
-59713.45305323
-59723.40142782
-59722.92865708
-59724.54410339
-59722.92865708
-59723.34495706
-59721.37465989
-59717.17026841
-59724.11940131
-59716.83965331
-59725.9843688
-59723.04617673
-59721.33183331
-59722.01179787
-59724.83923601
-59725.47093337
-59723.36850047
-59723.38743845
-59724.97948956
-59724.97112705
-59723.11881306
-59726.0632252
-59722.86616156
-59724.60175957
-59722.64355351
-59724.48219141
-59726.49608424
-59721.68324668
-59718.97253136
-59722.08916976
-59726.27282498
-59722.6248121
-59723.11350011
-59721.78069887
-59724.37568687
-59725.09055442
-59724.87114601
-59720.9570293
-59722.06648741
-59721.68629844
-59724.97896173
-59722.64355351
-59716.40168413
-59723.07227448
-59723.21426672
-59721.84270189
-59726.0477208
-59722.81572365
-59723.2011031
-59723.4083677
-59724.97212222
-59722.45851848
-59721.68629844
-59724.37568687
-59722.18495382
-59721.68629844
-59720.89860664
-59722.55521541
-59725.77217905
-59725.42505914
-59723.88839775
-59720.77716051
-59723.44590843
-59723.89846562
-59723.38743845
-59726.00294575
-59721.50377288
-59721.98848706
-59719.44328221
-59722.65647999
-59727.58543085
-59721.27214781
-59718.09431492
-59723.53755835
-59727.35702709
-59723.53755835
-59719.64813462
-59724.11940131
-59724.08301309
-59724.11940131
-59727.73497973
-59725.11754095
-59722.50947995
-59722.79275538
-59725.76913045
-59715.43060127
-59724.14002508
-59728.17733508
-59716.09334987
-59724.25198575
-59723.38743845
-59720.94970302
-59721.54508078
-59721.79405734
-59723.4907595
-59723.48526514
-59723.38743845
-59722.64355351
-59720.46102519
-59722.82632725
-59725.25192233
-59723.89292552
-59723.38743845
-59724.91325913
-59721.50157174
-59722.25317716
-59720.22285484
-59721.66450361
-59718.25648395
-59725.05413799
-59723.88876534
-59723.38743845
-59721.06102002
-59724.15046197
-59725.06565577
-59717.58162169
-59719.33245205
-59727.79429573
-59723.09070874
-59723.00868914
-59720.10749467
-59725.17976609
-59713.95146636
-59725.09109805
-59723.38743845
-59722.63945474
-59726.19041523
-59723.13094491
-59724.41597086
-59725.68545664
-59723.53755835
-59722.16904846
-59724.78238094
-59723.23524765
-59717.08780796
-59726.63519578
-59723.66332085
-59723.95996244
-59725.32041655
-59724.77856876
-59716.12091485
-59721.01678237
-59729.03458409
-59722.64355351
-59717.77526606
-59724.37568687
-59720.99699421
-59723.10508227
-59724.71992417
-59722.46878873
-59718.81038929
-59723.00022493
-59722.92865708
-59723.18328663
-59721.7127724
-59721.79405734
-59727.26943463
-59714.74769696
-59720.79759962
-59723.53755835
-59723.53755835
-59721.79405734
-59723.14130584
-59721.40123174
-59724.6826084
-59726.43248003
-59725.12501974
-59722.92865708
-59724.82161804
-59724.8263578
-59724.79084107
-59724.14994223
-59727.01179272
-59725.10250952
-59723.97294106
-59724.2527534
-59725.64349508
-59725.78074916
-59720.3913528
-59719.31282977
-59724.43916171
-59722.66097996
-59721.68629844
-59722.41468752
-59722.43630307
-59722.68618482
-59722.173141
-59722.54444292
-59717.5511567
-59720.70427991
-59726.90747305
-59724.65474882
-59723.56178955
-59720.80428378
-59725.44594004
-59724.84061676
-59723.38743845
-59725.7591862
-59722.24235358
-59722.01291593
-59723.79874534
-59725.9196268
-59724.83970643
-59722.40345004
-59724.65474882
-59723.03786603
-59713.81959977
-59722.58444366
-59723.47134925
-59726.60861614
-59716.4183907
-59722.70807531
-59726.07432233
-59726.62273973
-59723.14357463
-59723.23538776
-59720.70427991
-59723.70741164
-59724.22819894
-59724.65293587
-59724.65474882
-59721.79405734
-59714.5375594
-59721.36434535
-59718.61920102
-59724.65474882
-59724.97995198
-59723.38743845
-59723.53755835
-59721.17978992
-59714.87595104
-59721.05359131
-59720.90887307
-59725.10250952
-59724.78789371
-59722.92865708
-59724.55072466
-59720.80386296
-59725.21512619
-59721.28814976
-59723.40722905
-59722.41313747
-59722.29054537
-59723.58480917
-59721.79405734
-59723.22882955
-59719.21156046
-59724.7928892
-59723.88839775
-59722.92865708
-59722.84352506
-59722.6708663
-59723.9879109
-59722.53299663
-59722.92865708
-59728.86624086
-59723.53755835
-59715.60082049
-59725.0735762
-59724.27891052
-59724.78789371
-59726.19041523
-59722.72469466
-59723.26126438
-59722.42435714
-59723.1016767
-59722.63967835
-59717.60914593
-59724.06429709
-59725.10250952
-59722.06242043
-59721.96958868
-59725.81753958
-59723.13992245
-59726.85731157
-59725.00472669
-59721.78965239
-59716.02130423
-59720.01023109
-59725.41392647
-59721.59359661
-59724.6826084
-59724.04148091
-59724.65474882
-59715.80057502
-59725.88235678
-59725.10250952
-59726.43248003
-59723.88839775
-59725.13777469
-59723.61243336
-59716.44583354
-59721.09130206
-59715.93477698
-59726.35151186
-59722.97284789
-59727.01073485
-59724.61740178
-59724.78408298
-59717.64663712
-59723.38743845
-59727.72596954
-59721.79405734
-59724.46233738
-59723.05176979
-59722.64355351
-59724.95152908
-59727.01389884
-59723.4907595
-59722.52810696
-59726.43248003
-59721.6487364
-59718.85852329
-59715.15958787
-59722.04679134
-59723.42468501
-59728.43939583
-59723.89142207
-59723.59748525
-59723.34620849
-59724.8533031
-59725.10250952
-59722.92865708
-59723.87222358
-59720.70427991
-59725.09890642
-59726.05007216
-59721.79405734
-59723.53755835
-59723.0167489
-59722.40698537
-59723.23949934
-59722.60423617
-59725.82252625
-59723.19194925
-59722.64355351
-59723.50333972
-59723.34290675
-59723.53904263
-59722.7250508
-59722.60548764
-59723.00434681
-59722.92865708
-59722.92865708
-59725.21290009
-59720.96671985
-59722.73498379
-59724.55206154
-59723.33072329
-59724.85103644
-59721.79405734
-59721.68629844
-59724.33596487
-59723.4907595
-59722.0446302
-59722.22749787
-59725.98907675
-59727.01596391
-59721.39122526
-59724.65474882
-59721.39678497
-59721.87092466
-59725.94847799
-59726.5778495
-59722.31282192
-59722.92865708
-59723.80774748
-59716.97465465
-59720.80652941
-59726.28718156
-59723.50354279
-59723.67518033
-59721.8273923
-59722.5953923
-59721.79405734
-59726.90747305
-59723.57029974
-59723.53755835
-59724.67611048
-59725.75690289
-59725.45985471
-59720.70427991
-59720.43301209
-59720.04709566
-59727.22607374
-59725.25192233
-59727.11997052
-59724.68844822
-59721.79405734
-59723.05176979
-59720.52518036
-59726.29354309
-59723.88839775
-59726.65845685
-59724.67625041
-59723.53755835
-59722.69496457
-59722.53878637
-59723.14513533
-59722.92865708
-59722.69570898
-59724.69172107
-59722.70816097
