-5.972701510081999731e+04 
-5.972273281757000223e+04
-5.972519986626000173e+04
-5.972622970743000042e+04
-5.972708806881999772e+04
-5.972548986005000188e+04
-5.972472263152000232e+04
-5.972724676760999864e+04
-5.972533724521999829e+04
-5.972188063531000080e+04
-5.972909558896000090e+04
-5.972568022745000053e+04
-5.972366781838000315e+04
-5.972369088783999905e+04
-5.972456913946999703e+04
-5.972143628781000007e+04
-5.972650295298000128e+04
-5.972381815808999818e+04
-5.972361639712999749e+04
-5.972471414807000110e+04
-5.972236643894999725e+04
-5.972561580556000263e+04
-5.972439816838999832e+04
-5.972341079829000228e+04
-5.972309893543000362e+04
-5.972774333337000280e+04
-5.972430900719000056e+04
-5.972577168974999950e+04
-5.972483084033000341e+04
-5.972436424706999969e+04
-5.972517429512999661e+04
-5.972209956776999752e+04
-5.972509381769999891e+04
-5.972219527810999716e+04
-5.972465863220999745e+04
-5.972428837246000330e+04
-5.972594440462000057e+04
-5.971985138646000269e+04
-5.972782703236999805e+04
-5.972191710898999736e+04
-5.973000506430999667e+04
-5.972402975606999826e+04
-5.972427247404000082e+04
-5.972623582924000220e+04
-5.972093683120000060e+04
-5.972248666296000010e+04
-5.972421440535999864e+04
-5.972549424364000151e+04
-5.972624912323000171e+04
-5.972516808670000319e+04
-5.972189143173999764e+04
-5.972339278658999683e+04
-5.972434522393999941e+04
-5.972495864461000019e+04
-5.972312262555999769e+04
-5.972649227819999942e+04
-5.972764461460999883e+04
-5.972875612232999993e+04
-5.972494704700000148e+04
-5.972637412752000091e+04
-5.972139388543999667e+04
-5.972180530593999720e+04
-5.972172574221999821e+04
-5.972693644646000030e+04
-5.972568258659000276e+04
-5.972642169196999748e+04
-5.971985150497999712e+04
-5.972361056259000179e+04
-5.972698448069000005e+04
-5.972558602160000009e+04
-5.972291289625000354e+04
-5.972329614753000351e+04
-5.972510531713999808e+04
-5.972544795313999930e+04
-5.972584174188999896e+04
-5.972606521231000079e+04
-5.972622979291999945e+04
-5.972552438504000020e+04
-5.972242217530999915e+04
-5.972086353547999897e+04
-5.972073028265000175e+04
-5.972417984599999909e+04
-5.972303453473000263e+04
-5.972361931526999979e+04
-5.972258953964999819e+04
-5.972649161084999650e+04
-5.972592252272999758e+04
-5.972294703712000046e+04
-5.972427868244000274e+04
-5.972426263084999664e+04
-5.972343182582000009e+04
-5.972769369872999960e+04
-5.972221098296999844e+04
-5.972629493013000319e+04
-5.972414076041999942e+04
-5.972484499094999774e+04
-5.973162015745999815e+04
-5.972560834145000263e+04
-5.972532118404000357e+04
-5.972131436474999646e+04
-5.972008354243999929e+04
-5.972666456401000323e+04
-5.972094288362999941e+04
-5.972311963482000283e+04
-5.972721081737000350e+04
-5.972154574074999982e+04
-5.972425142813999992e+04
-5.972786936299000081e+04
-5.971898241522000171e+04
-5.972327856767000048e+04
-5.972460876609000115e+04
-5.972683847829000297e+04
-5.972419703391000075e+04
-5.972758465987000091e+04
-5.972213743234000140e+04
-5.972675471752000158e+04
-5.972655009235999751e+04
-5.972368783055999666e+04
-5.972746890741000243e+04
-5.972304699481999705e+04
-5.972344321933000174e+04
-5.972540392034999968e+04
-5.972259285121999710e+04
-5.973750259465000272e+04
-5.972470893359999900e+04
-5.972240713472999778e+04
-5.972505680574000144e+04
-5.972361063478999858e+04
-5.972600920821999898e+04
-5.972527983462999691e+04
-5.972231123706999642e+04
-5.972631048484000348e+04
-5.972596061996000208e+04
-5.972644264645999647e+04
-5.972051865278000332e+04
-5.972364011770000070e+04
-5.972535658032000356e+04
-5.972279812567000045e+04
-5.973079584336999687e+04
-5.972560989531000087e+04
-5.973456119619999663e+04
-5.972210239477000141e+04
-5.972333460488999845e+04
-5.972973335780000343e+04
-5.972468960902000254e+04
-5.972602343120000296e+04
-5.972078951947000314e+04
-5.972420285716000217e+04
-5.972697346061000280e+04
-5.972445010853999702e+04
-5.972638900350999756e+04
-5.972159684582000045e+04
-5.972893052519000048e+04
-5.972397396540000045e+04
-5.972507001553000009e+04
-5.972195968932999676e+04
-5.972259916073999921e+04
-5.972554745666000235e+04
-5.972604451000999688e+04
-5.972063137126999936e+04
-5.972310295724999742e+04
-5.972897253361999901e+04
-5.972580174925000028e+04
-5.972552395263999642e+04
-5.972663563868000347e+04
-5.972535624713000288e+04
-5.972436348670999723e+04
-5.972443526341999677e+04
-5.972424631188999774e+04
-5.972377503086999786e+04
-5.972719652363999921e+04
-5.972241596980000031e+04
-5.972804305313999794e+04
-5.972574083363999671e+04
-5.971956038129000081e+04
-5.972778450085000077e+04
-5.972229527388000133e+04
-5.972233436562999850e+04
-5.972550604089000262e+04
-5.972484986039999785e+04
-5.972329137274000095e+04
-5.972536364591999882e+04
-5.972364704042999801e+04
-5.972394837592999829e+04
-5.972154375117999734e+04
-5.972564959876999637e+04
-5.972487051575999794e+04
-5.972887740635999944e+04
-5.972691985854999803e+04
-5.972612519418999727e+04
-5.972408237796000321e+04
-5.972604694846000348e+04
-5.972745180172000255e+04
-5.972390400662000320e+04
-5.971990552305000165e+04
-5.972494458491999831e+04
-5.972411328401000355e+04
-5.972228261632000067e+04
-5.972454937952999899e+04
-5.972424151729999721e+04
-5.972667667223000171e+04
-5.972379590081000060e+04
-5.972243216830000165e+04
-5.973190398011000070e+04
-5.972475304550000146e+04
-5.972524440709000191e+04
-5.972354157729999861e+04
-5.972636961922000046e+04
-5.972564533572999790e+04
-5.972352287002000230e+04
-5.972614612553000188e+04
-5.972520199744999991e+04
-5.972399160282999947e+04
-5.972383026776000042e+04
-5.972578423869000108e+04
-5.972519225814999663e+04
-5.972275520633000269e+04
-5.972569184888000018e+04
-5.972760807763999765e+04
-5.972642990529999952e+04
-5.972489724065000337e+04
-5.972711753869999666e+04
-5.972476538040000014e+04
-5.972648848923000332e+04
-5.972246786032000091e+04
-5.972782983211000101e+04
-5.972295596662999742e+04
-5.972628850617999706e+04
-5.972583047942999838e+04
-5.972498810219000006e+04
-5.972082371581999905e+04
-5.972178170351000153e+04
-5.972449177652999788e+04
-5.972689186691999930e+04
-5.972294213457000296e+04
-5.972372563988999900e+04
-5.972107684249999875e+04
-5.972637253847000102e+04
-5.972776169490000029e+04
-5.972403277574999811e+04
-5.972349596832999669e+04
-5.972682104059000267e+04
-5.972268885166999826e+04
-5.972546067423000204e+04
-5.972211663899999985e+04
-5.972440744498999993e+04
-5.972380417444000341e+04
-5.972514762108000286e+04
-5.972295094545999746e+04
-5.972166745598999842e+04
-5.972578017520000139e+04
-5.972546551960000215e+04
-5.972209142466999765e+04
-5.972786177391000092e+04
-5.972698485975000222e+04
-5.972599186185000144e+04
-5.972501139756000339e+04
-5.972641182012000354e+04
-5.972541334874000313e+04
-5.972369576652999967e+04
-5.972532353149000119e+04
-5.972580187457000284e+04
-5.972481342630000290e+04
-5.972339453348000097e+04
-5.972504491666000104e+04
-5.972497009460000118e+04
-5.972265245798000251e+04
-5.972716253331999906e+04
-5.972053885841000010e+04
-5.972762869294999837e+04
-5.972866491988000053e+04
-5.972543801341999642e+04
-5.972393560147999960e+04
-5.972501163385999826e+04
-5.972120126462999906e+04
-5.972729595918000268e+04
-5.972207597025999712e+04
-5.972453787166999973e+04
-5.972563086476000171e+04
-5.972311330337999971e+04
-5.972748203603999718e+04
-5.972177038591000019e+04
-5.972553291647999868e+04
-5.972219160939999711e+04
-5.972745128801999817e+04
-5.972136550903000170e+04
-5.972092327112000203e+04
-5.972668820694000169e+04
-5.972238035251000110e+04
-5.972478138670999761e+04
-5.972144333301999723e+04
-5.971926627818999987e+04
-5.972373876773999655e+04
-5.972703118697999889e+04
-5.972247877020000305e+04
-5.972611155457000132e+04
-5.973167568431000109e+04
-5.972402260058999673e+04
-5.973409057226999721e+04
-5.972615394394999748e+04
-5.972298664855000243e+04
-5.972311033299999690e+04
-5.972870355764999840e+04
-5.972142399994000152e+04
-5.972668002464999881e+04
-5.972422645388999808e+04
-5.972496914873999776e+04
-5.972365919425000175e+04
-5.972311466926000139e+04
-5.972416183084999648e+04
-5.972647508923999703e+04
-5.972210831093000161e+04
-5.972324200336999638e+04
-5.972485544959999970e+04
-5.972407389202000195e+04
-5.972237484648000100e+04
-5.972974048564999975e+04
-5.972846649174000049e+04
-5.972732574793999811e+04
-5.972372271721000288e+04
-5.972449305022000044e+04
-5.972603767284000060e+04
-5.972152261700000236e+04
-5.972469561090999923e+04
-5.972706468404999760e+04
-5.972363359610999760e+04
-5.972299411595000129e+04
-5.972326779695000005e+04
-5.972373982988000353e+04
-5.972571735669000191e+04
-5.972728215343000193e+04
-5.972528004573000362e+04
-5.972459765663999860e+04
-5.972582466400999692e+04
-5.972606564136000088e+04
-5.972654628853999748e+04
-5.972406803727000079e+04
-5.972559852333000163e+04
-5.973059219193000172e+04
-5.972318432882000343e+04
-5.972125773756999843e+04
-5.972488025098000071e+04
-5.972337254745999962e+04
-5.972279060775999824e+04
-5.972221536128000298e+04
-5.972616892561999703e+04
-5.972736650375000318e+04
-5.972170996492000268e+04
-5.972328076026000053e+04
-5.972648750945000211e+04
-5.972517651274999662e+04
-5.972242910175999714e+04
-5.972290075393999723e+04
-5.972039560088999860e+04
-5.972634147138000117e+04
-5.972516539698000270e+04
-5.972314342590999877e+04
-5.972637336307999794e+04
-5.972347472723999817e+04
-5.972173071519000223e+04
-5.972193166724999901e+04
-5.972821663170000102e+04
-5.972652329274999647e+04
-5.972472316503999900e+04
-5.972747644502999901e+04
-5.972337648458000331e+04
-5.972264070350000111e+04
-5.972476152123999782e+04
-5.972698702849000256e+04
-5.972569875036000303e+04
-5.972444929250000132e+04
-5.972058906394999940e+04
-5.972411305072999676e+04
-5.972493118643000344e+04
-5.972660242301000108e+04
-5.972565178531999845e+04
-5.972607581082999968e+04
-5.972238764451000316e+04
-5.972548391419000109e+04
-5.972281126598000264e+04
-5.972044952844000363e+04
-5.972746877192000102e+04
-5.971941467849000037e+04
-5.972447387031999824e+04
-5.972601013434000197e+04
-5.972058930772999884e+04
-5.972255207576999965e+04
-5.972389188327000011e+04
-5.972701729293999961e+04
-5.972579770509999798e+04
-5.972289692559000105e+04
-5.972596534434999921e+04
-5.972238271042999986e+04
-5.972400323922999814e+04
-5.972353683052000270e+04
-5.972062734695000108e+04
-5.972211580890000187e+04
-5.972340996176000044e+04
-5.972299961017999885e+04
-5.972395189620999736e+04
-5.972475769510000100e+04
-5.972461799117999908e+04
-5.972848455503000150e+04
-5.972270048790000146e+04
-5.972566245881999930e+04
-5.972203901089999999e+04
-5.972713525685000059e+04
-5.972423009011000249e+04
-5.972234604424000281e+04
-5.972077687734000210e+04
-5.972343211413999961e+04
-5.972745328567999968e+04
-5.972410131738999917e+04
-5.972441152483999758e+04
-5.972266382986000099e+04
-5.973008777058000123e+04
-5.972609723233999830e+04
-5.972547867987000063e+04
-5.972414932710999710e+04
-5.972300498019000224e+04
-5.972370235218000016e+04
-5.972730149618999712e+04
-5.972233026332999725e+04
-5.972340701696999895e+04
-5.972578169208000327e+04
-5.972231558657999994e+04
-5.972510481859999709e+04
-5.972461215906000143e+04
-5.972722303110999928e+04
-5.972493829423999705e+04
-5.971766341259999899e+04
-5.972200094089999766e+04
-5.972569783425999776e+04
-5.972837202062999859e+04
-5.973429471170999750e+04
-5.972752570643999934e+04
-5.972378083745999902e+04
-5.972396515499000088e+04
-5.972708660447000148e+04
-5.972421590327999729e+04
-5.972195505512000091e+04
-5.972491681604999758e+04
-5.972512020826999651e+04
-5.972773492650000117e+04
-5.972704888267000206e+04
-5.972307577938000031e+04
-5.972159426456000074e+04
-5.972411291119000089e+04
-5.972543019289999938e+04
-5.972622866415000317e+04
-5.972784439977999864e+04
-5.972392115732999810e+04
-5.972376401821000036e+04
-5.972496083730000100e+04
-5.972932725442999799e+04
-5.972333041665000201e+04
-5.972541706492999947e+04
-5.972732131431999733e+04
-5.972226847545000055e+04
-5.972162002676999691e+04
-5.972393676207999670e+04
-5.972279592481999862e+04
-5.972603756569999678e+04
-5.972175753054999950e+04
-5.972787542540999857e+04
-5.973006486669000151e+04
-5.972355507319000026e+04
-5.972492021655999997e+04
-5.972842469837999670e+04
-5.972390882168000098e+04
-5.972353416953999840e+04
-5.972631858875999751e+04
-5.972453855076999753e+04
-5.972635218986000109e+04
-5.972746029178000026e+04
-5.972888880470999720e+04
-5.972282900209000218e+04
-5.972061348949999956e+04
-5.972680206914000155e+04
-5.972093548167999688e+04
-5.972198924488000193e+04
-5.972505603384999995e+04
-5.972458567429999675e+04
-5.972174291328000254e+04
-5.972620951970999886e+04
-5.972333842225000262e+04
-5.972750170377000177e+04
-5.972211259602000064e+04
-5.972367179128000134e+04
-5.972334664943999815e+04
-5.972547240969999984e+04
-5.972602355448000162e+04
-5.972479769987000327e+04
-5.972152246197999921e+04
-5.972410114815000270e+04
-5.972362319048000063e+04
-5.972475706768999953e+04
-5.972570218367000052e+04
-5.972534769180000148e+04
-5.972325147434000246e+04
-5.972220085634999850e+04
-5.972862427325000317e+04
-5.972346884477999993e+04
-5.972860817970999778e+04
-5.972346077174999664e+04
-5.972608073319999676e+04
-5.972390061001999857e+04
-5.972857785118999891e+04
-5.972296909464000055e+04
-5.972288738616999763e+04
-5.972761330933000136e+04
-5.972117583973000001e+04
-5.972687615778000327e+04
-5.972734671879999951e+04
-5.973485060648999934e+04
-5.972689912752000237e+04
-5.972677490055999806e+04
-5.972105522526000277e+04
-5.972496435339000163e+04
-5.972241898116000084e+04
-5.972354479326000001e+04
-5.972576898801999778e+04
-5.972722056957000314e+04
-5.972513819222000166e+04
-5.972623740109999926e+04
-5.972393232965000061e+04
-5.972566991858000256e+04
-5.972518789868000022e+04
-5.972811779961000138e+04
-5.972513962984999671e+04
-5.972605983648000256e+04
-5.972444727994999994e+04
-5.972661992877000012e+04
-5.972637832750000234e+04
-5.972229194861999713e+04
-5.972296525226999802e+04
-5.972168955491000088e+04
-5.972601168152999890e+04
-5.972519526441999915e+04
-5.972314132511999924e+04
-5.972693780369000160e+04
-5.972145634566999797e+04
-5.972326515502999973e+04
-5.972531096683999931e+04
-5.972535039661000337e+04
-5.972372656013000233e+04
-5.972444851514999755e+04
-5.972404491725999833e+04
-5.972375082575000124e+04
-5.972347030377999909e+04
-5.972387160297000082e+04
-5.972696065161000297e+04
-5.972364714873000048e+04
-5.972720671599000343e+04
-5.972503206425999815e+04
-5.972344508423999650e+04
-5.972509129186000064e+04
-5.972232337574999838e+04
-5.972459880402999988e+04
-5.972523166777000006e+04
-5.972488521739999851e+04
-5.972266880872000183e+04
-5.972482743142999971e+04
-5.972415439737000270e+04
-5.972437533447000169e+04
-5.972405261669999891e+04
-5.972798930390000169e+04
-5.972482886228999996e+04
-5.972580975148000289e+04
-5.972690736967999692e+04
-5.972656246316000033e+04
-5.972339229353999690e+04
-5.972821728193000308e+04
-5.972112340874999791e+04
-5.972125671850000072e+04
-5.972482927781000035e+04
-5.971984146183000121e+04
-5.972538597353999648e+04
-5.972681102565000037e+04
-5.972703705179000099e+04
-5.971775534337000136e+04
-5.972211314729999867e+04
-5.972046253235999757e+04
-5.972379491568999947e+04
-5.972371329253000295e+04
-5.972328584923999733e+04
-5.972364567869000166e+04
-5.972199558830000024e+04
-5.972422375869999814e+04
-5.972527492342000187e+04
-5.972396115185000235e+04
-5.972356504437999683e+04
-5.972679929783000262e+04
-5.972718982469999901e+04
-5.972445959143999789e+04
-5.972640685674000270e+04
-5.972465331059000164e+04
-5.972068262797000352e+04
-5.972793440466000175e+04
-5.972209901155000261e+04
-5.972551436049000040e+04
-5.972568234688999655e+04
-5.972565227053000126e+04
-5.972343715631999657e+04
-5.972316181307000079e+04
-5.972199320797000109e+04
-5.971971573045999685e+04
-5.972182764214000053e+04
-5.972470071751999785e+04
-5.972183123435999732e+04
-5.972382084161999956e+04
-5.972239271066999936e+04
-5.972255949387000146e+04
-5.972457567782999831e+04
-5.972334500313999888e+04
-5.972164960047999921e+04
-5.972280514653999853e+04
-5.972579532867999660e+04
-5.972310237248000340e+04
-5.972631563422000181e+04
-5.972648672216999694e+04
-5.972509712992999994e+04
-5.972364792370000214e+04
-5.972107131746000232e+04
-5.972306057991999842e+04
-5.972446867010000278e+04
-5.972284124773999793e+04
-5.972124447702999896e+04
-5.972555645075999928e+04
-5.972368196937000175e+04
-5.972491434183999809e+04
-5.972412480404000235e+04
-5.972237273042000015e+04
-5.972358709164999891e+04
-5.972626771849000215e+04
-5.972158113069999672e+04
-5.972648883760999888e+04
-5.972655808101999719e+04
-5.972406376245000138e+04
-5.972243055992999871e+04
-5.972571930768000311e+04
-5.972296051350999915e+04
-5.972595168833000207e+04
-5.972728417990000162e+04
-5.972761421736000193e+04
-5.972408210005999717e+04
-5.972394636573999742e+04
-5.972731023732999893e+04
-5.971920317940999666e+04
-5.972732961328000238e+04
-5.972389418994999869e+04
-5.972255159676000039e+04
-5.972404209848000028e+04
-5.972501459535000322e+04
-5.972338924104000034e+04
-5.972692059906000213e+04
-5.972187802655000269e+04
-5.972236975995999819e+04
-5.972449753947000136e+04
-5.972290923176000069e+04
-5.972649103977000050e+04
-5.972165795503000118e+04
-5.972485185148999881e+04
-5.972352395390000311e+04
-5.972971923036999942e+04
-5.972848334828999941e+04
-5.972503419415000099e+04
-5.972434359950000362e+04
-5.972491434332000063e+04
-5.972744867464999697e+04
-5.972487557270000252e+04
-5.972070799435999652e+04
-5.972379344890000357e+04
-5.972581467546999920e+04
-5.972398166984999989e+04
-5.972555979603000014e+04
-5.972397060436999891e+04
-5.972323259682999924e+04
-5.972688568839000072e+04
-5.972465709811000124e+04
-5.972671033511000132e+04
-5.973003189628999826e+04
-5.972593197625000175e+04
-5.972276327635000052e+04
-5.972298269509999955e+04
-5.972135224970000127e+04
-5.972398857103999762e+04
-5.973000101826999889e+04
-5.972732067305999954e+04
-5.972599141209999652e+04
-5.971901996160999988e+04
-5.972172266099000262e+04
-5.972155888047999906e+04
-5.972787452156999643e+04
-5.972453054592999979e+04
-5.972631198877999850e+04
-5.972476323099999718e+04
-5.972318342215000303e+04
-5.972314821615000255e+04
-5.972455902837999747e+04
-5.972352411469999788e+04
-5.972415201810000144e+04
-5.972807614627000294e+04
-5.972437313190999703e+04
-5.972623281311000028e+04
-5.972282089098999859e+04
-5.972666658776000259e+04
-5.972391536099000223e+04
-5.972319408890000341e+04
-5.972103964270999859e+04
-5.972676249901999836e+04
-5.972580906746000255e+04
-5.972298740094999812e+04
-5.972552309622000030e+04
-5.972097384564000095e+04
-5.972202146021000226e+04
-5.972397042194000096e+04
-5.972742567846999737e+04
-5.972531936298000073e+04
-5.973467916261000209e+04
-5.972514091752999957e+04
-5.972324415584000235e+04
-5.972475212096999894e+04
-5.972600078850999853e+04
-5.972525051610000082e+04
-5.972720258053999714e+04
-5.972399864522000280e+04
-5.972695411397999851e+04
-5.972626842803999898e+04
-5.972379362247999961e+04
-5.972700327989999641e+04
-5.972582375876999868e+04
-5.972563486107000062e+04
-5.972250432300999819e+04
-5.972611838133999845e+04
-5.972150922112999979e+04
-5.972454616923999856e+04
-5.972142162875000213e+04
-5.972614039883999794e+04
-5.972465453749000153e+04
-5.972310350787000061e+04
-5.972247087161999661e+04
-5.972300456395999936e+04
-5.972542630972000188e+04
-5.972697529278999718e+04
-5.972182849069000076e+04
-5.972567415879000328e+04
-5.972417421124999964e+04
-5.972545299127000180e+04
-5.972665870179000194e+04
-5.972335447615999874e+04
-5.972439721124999778e+04
-5.972710652485000173e+04
-5.972601301034999778e+04
-5.972184959735000302e+04
-5.972664294407999841e+04
-5.972848434054000245e+04
-5.972320641089000128e+04
-5.972172442376000254e+04
-5.972615870562000055e+04
-5.972363579837999714e+04
-5.972412480091000180e+04
-5.972233890596999845e+04
-5.972269803084000159e+04
-5.972276450045000092e+04
-5.973489095480000105e+04
-5.972659709475000273e+04
-5.972446854786999756e+04
-5.972413642540000001e+04
-5.972567038984999817e+04
-5.972524379744999897e+04
-5.972668386410999665e+04
-5.972463160870000138e+04
-5.972629047077999712e+04
-5.972697054306999780e+04
-5.972941535360999842e+04
-5.972624821938000241e+04
-5.972291936796999653e+04
-5.972873724180999852e+04
-5.972220007017999887e+04
-5.972300406010000006e+04
-5.972536051921000035e+04
-5.972959468857000320e+04
-5.972626758436999808e+04
-5.972468945854000049e+04
-5.972706069073000253e+04
-5.972695331158999761e+04
-5.972477985163000267e+04
-5.972236797670999658e+04
-5.972506957410999894e+04
-5.972487614598000073e+04
-5.972533475799999724e+04
-5.972393690877000336e+04
-5.972381298190000234e+04
-5.972766312396000285e+04
-5.972326838698000211e+04
-5.972494774563000101e+04
-5.972458494249000069e+04
-5.972115176767999947e+04
-5.972547524254000018e+04
-5.972338475104000099e+04
-5.972336867144000280e+04
-5.972261210086999927e+04
-5.972745814901999984e+04
-5.972640216584000154e+04
-5.972917142818999855e+04
-5.972426349165000283e+04
-5.972669264331000159e+04
-5.972660630158999993e+04
-5.972645219671000086e+04
-5.972539288621999731e+04
-5.972507605863000208e+04
-5.972700220912999794e+04
-5.972461137975000020e+04
-5.972790505508999922e+04
-5.972678586335000000e+04
-5.971948312805000023e+04
-5.972430355189999682e+04
-5.972487856889000250e+04
-5.972200836590999825e+04
-5.972740037832999951e+04
-5.972588100144999771e+04
-5.972361777696000354e+04
-5.972757387033999839e+04
-5.972406795222000073e+04
-5.972432882216999860e+04
-5.972334186937000050e+04
-5.972507514039999660e+04
-5.972432753173999663e+04
-5.972495600649999687e+04
-5.972242294086000038e+04
-5.972560314512000332e+04
-5.972370234702000016e+04
-5.972278513941999699e+04
-5.972716962836000312e+04
-5.972590605045999837e+04
-5.972393158111000230e+04
-5.972913120021999930e+04
-5.972495345071000338e+04
-5.972485884215999977e+04
-5.972376823434999824e+04
-5.972669515356000193e+04
-5.972420399752000230e+04
-5.972188328419999743e+04
-5.972339410889000283e+04
-5.972410910563999641e+04
-5.973208665235999797e+04
-5.972440343548999954e+04
-5.972451489233999746e+04
-5.972342953493999812e+04
-5.972198527037000167e+04
-5.972634328213000117e+04
-5.972162600009000016e+04
-5.972293342821000260e+04
-5.972317639041000075e+04
-5.972574145198000042e+04
-5.972400786684000195e+04
-5.972371368916000210e+04
-5.972708339228999830e+04
-5.972171657597999729e+04
-5.972507893499999773e+04
-5.973065772424999886e+04
-5.972603411610000330e+04
-5.972089963041999727e+04
-5.972270103463000123e+04
-5.972696738306000043e+04
-5.972484896001000016e+04
-5.972599485165000078e+04
-5.972097767623000254e+04
-5.972503350805999798e+04
-5.972888036016000115e+04
-5.972400102260000131e+04
-5.972364080606999778e+04
-5.972277811680999730e+04
-5.972413495679000334e+04
-5.972489140079000208e+04
-5.972590328264999698e+04
-5.972652487896999810e+04
-5.972411800863999815e+04
-5.971932531018999725e+04
-5.972284981939999852e+04
-5.972592016323999997e+04
-5.972835671900000307e+04
-5.972394519736999791e+04
-5.972023215615999652e+04
-5.972409200725999835e+04
-5.973142077828999754e+04
-5.972155582552000124e+04
-5.972482551090999914e+04
-5.972386084580999886e+04
-5.972417818963999889e+04
-5.972326972750000277e+04
-5.972291217075000168e+04
-5.972658035999999993e+04
-5.972672422411000298e+04
-5.972464435762000357e+04
-5.972614545971999905e+04
-5.972743445423999947e+04
-5.972341298785999970e+04
-5.972337494999999763e+04
-5.972642742888000066e+04
-5.972707016373999795e+04
-5.972409436085000198e+04
-5.971850865915000031e+04
-5.972579969711999729e+04
-5.971972344508000242e+04
-5.972140963023999939e+04
-5.972290165792000334e+04
-5.972350042090000352e+04
-5.972137331504999747e+04
-5.972542644126999949e+04
-5.972002370989000337e+04
-5.972524081928999658e+04
-5.972625484057999711e+04
-5.972343344762000197e+04
-5.972255111372999818e+04
-5.972599315770000248e+04
-5.972308197043000109e+04
-5.972257344516000012e+04
-5.972289324102999672e+04
-5.972420862332000252e+04
-5.972246017468000355e+04
-5.972369538068999827e+04
-5.972625170506999712e+04
-5.972261724022000271e+04
-5.972222849544000201e+04
-5.972200990879000165e+04
-5.972383725263000088e+04
-5.972387203471000248e+04
-5.972531899433999934e+04
-5.972255253159000131e+04
-5.972339725665000151e+04
-5.972488355081999907e+04
-5.972238969827000255e+04
-5.972583895939999638e+04
-5.972057244704000186e+04
-5.972663826158000302e+04
-5.972303949131999980e+04
-5.972319196080999973e+04
-5.972596533415999875e+04
-5.972666009302999737e+04
-5.972414058343999932e+04
-5.972407905071999994e+04
-5.972445306580999750e+04
-5.972808054227999673e+04
-5.972995390120000229e+04
-5.972599318946999847e+04
-5.972400615056000242e+04
-5.972692075759999716e+04
-5.972321099864999996e+04
-5.972371273190999636e+04
-5.972691657811999903e+04
-5.972148715020999953e+04
-5.972445399691999773e+04
-5.972487317119000363e+04
-5.973233884547000343e+04
-5.972343212831999699e+04
-5.972510053001000051e+04
-5.972831150642000284e+04
-5.973186507629999687e+04
-5.972218984782000189e+04
-5.972262936210999760e+04
-5.972142399147000106e+04
-5.972620653183999821e+04
-5.972611483987000247e+04
-5.972334718825999880e+04
-5.972942798615000356e+04
-5.972518011082000157e+04
-5.972269820690000051e+04
-5.972394387742000254e+04
-5.972357842859999801e+04
-5.972279936432000250e+04
-5.972305680238999776e+04
-5.972135172056000010e+04
-5.972729046411000309e+04
-5.972272685777999868e+04
-5.972581664756000100e+04
-5.972302147449000040e+04
-5.972248218490999716e+04
-5.972512660409999808e+04
-5.972499671079999825e+04
-5.972056058697000117e+04
-5.972350759752000158e+04
-5.972421758250999846e+04
-5.972479150548000325e+04
-5.972385536706000130e+04
-5.972230857536999974e+04
-5.972543202574000316e+04
-5.972177259149999736e+04
-5.972259849144000327e+04
-5.972670368245999998e+04
-5.972527911904999928e+04
-5.972572715969999990e+04
-5.972283259903999715e+04
-5.972489483979999932e+04
-5.972613915339999949e+04
-5.972951326983999752e+04
-5.972708973469999910e+04
-5.972647932772000058e+04
-5.973183306979000190e+04
-5.972822273351000331e+04
-5.972041051744000288e+04
-5.972378042576000007e+04
-5.972524501230000169e+04
-5.972460978227000305e+04
-5.972334067571000196e+04
-5.972351494600000296e+04
-5.972426683700000285e+04
-5.972338489737000054e+04
-5.972546521955999924e+04
-5.972282597473000351e+04
-5.972610137296999892e+04
-5.972720320866999828e+04
-5.972232983386999695e+04
-5.972411727567000344e+04
-5.972567944896999688e+04
-5.972661675665999792e+04
-5.972375618925999879e+04
-5.972355000584999652e+04
-5.972091619281999738e+04
-5.972559444832999725e+04
-5.972617746017000172e+04
-5.972611571315000037e+04
-5.972527265207000164e+04
-5.972449206781000248e+04
-5.972508268092000071e+04
-5.972209532595000201e+04
-5.972326535028000217e+04
-5.972604057122999802e+04
-5.972707517212999664e+04
-5.972505310153000028e+04
-5.972700132347000181e+04
-5.972420677512999828e+04
-5.972497779802999867e+04
-5.972396815991999756e+04
-5.972340127845000097e+04
-5.972325522982000257e+04
-5.972190200036000169e+04
-5.972398699595999642e+04
-5.972098209499000222e+04
-5.972238277869999729e+04
-5.972032181301999663e+04
-5.972130924678999872e+04
-5.972376933039999858e+04
-5.972892581891999725e+04
-5.972312257551999937e+04
-5.972114802470999712e+04
-5.972291550259000360e+04
-5.972700065275999805e+04
-5.972507248080999852e+04
-5.972874730807999731e+04
-5.972183021199000359e+04
-5.972590253615999973e+04
-5.972625467599999683e+04
-5.972429675398999825e+04
-5.972280295782999747e+04
-5.972614582371999859e+04
-5.972431996934999916e+04
-5.972415779733999807e+04
-5.972378519196999696e+04
-5.972531996636999975e+04
-5.972370243962999666e+04
-5.972710577809999813e+04
-5.972537185180000233e+04
-5.972702466332999757e+04
-5.972572428254999977e+04
-5.972634506765999686e+04
-5.972802792557999783e+04
-5.972576615963000222e+04
-5.972283021069999813e+04
-5.972320936842999799e+04
-5.972442889876999834e+04
-5.972271751257999858e+04
-5.972643479356999887e+04
-5.972704243968999799e+04
-5.972143762735999917e+04
-5.972479387351000332e+04
-5.972558988816999772e+04
-5.972412322560000030e+04
-5.972636641106999741e+04
-5.972115674117999879e+04
-5.972486539859000186e+04
-5.972356869277000078e+04
-5.972234913314999721e+04
-5.972692668342999968e+04
-5.972461540755999886e+04
-5.972345594454000093e+04
-5.972592549416999827e+04
-5.972269075301999692e+04
-5.972592162421999819e+04
-5.972222305421999772e+04
-5.972492539106000186e+04
-5.972498923898000066e+04
-5.972456177117000334e+04
-5.972637012824999692e+04
-5.972596268365000287e+04
-5.972658573967999837e+04
-5.972159411798999645e+04
-5.972598807372000010e+04
-5.972504342583999824e+04
-5.972155776006999804e+04
-5.972875018016999820e+04
-5.971678005200000189e+04
-5.972674510582999937e+04
-5.972290798740000173e+04
-5.972640307941000356e+04
-5.972288556465000147e+04
-5.973016200358000060e+04
-5.972584230312999716e+04
-5.972500198726999952e+04
-5.972826123504000134e+04
-5.972397465465000278e+04
-5.972165070245999959e+04
-5.972672386179000023e+04
-5.972494521561999863e+04
-5.972086657258000196e+04
-5.972783289482999680e+04
-5.972513144063000072e+04
-5.972379455087999668e+04
-5.972189458035000280e+04
-5.972874643661000300e+04
-5.972201874061999843e+04
-5.972634472059999825e+04
-5.972531037423000089e+04
-5.972367269295000006e+04
-5.972278003524999804e+04
-5.972230176393999864e+04
-5.972193344822999643e+04
-5.972740947261999827e+04
-5.972674197734000336e+04
-5.972248856741999771e+04
-5.972234116175000236e+04
-5.972477212138000323e+04
-5.972734141642999748e+04
-5.972781013587999769e+04
-5.972243634836999991e+04
-5.972202963319999981e+04
-5.972843189990000246e+04
-5.972639006859999790e+04
-5.972798962549999851e+04
-5.972369192658000247e+04
-5.972755019103999803e+04
-5.972271188409000024e+04
-5.972631458187999669e+04
-5.972458127814999898e+04
-5.972438443633000134e+04
-5.972499286844000017e+04
-5.972610076860999834e+04
-5.972348476888000005e+04
-5.971933211812000081e+04
-5.972397738802999811e+04
-5.972562779441000021e+04
-5.972595500658999663e+04