-59714.60948596
-59718.19472557
-59723.14513533
-59720.34576211
-59725.5008644
-59716.79072173
-59717.26347583
-59722.55521541
-59721.59998858
-59719.24732504
-59725.26689038
-59714.63743242
-59722.8434408
-59706.94510014
-59718.53501994
-59715.75232256
-59721.28444452
-59713.43625212
-59712.48491499
-59714.3816973
-59723.15382964
-59724.65208579
-59714.825693
-59719.3233914
-59718.64855843
-59718.42714808
-59725.76540673
-59724.6696826
-59723.69834465
-59721.87092466
-59714.60948596
-59723.55963657
-59712.36029082
-59725.00227364
-59714.82523028
-59723.66601205
-59720.07283816
-59723.56178955
-59721.00247597
-59725.10531283
-59725.91382023
-59711.66637057
-59710.11452465
-59725.09055442
-59724.04148091
-59727.3441238
-59714.10340795
-59721.97169431
-59721.54466557
-59718.74742641
-59724.8915523
-59725.08943681
-59723.1321116
-59724.88649581
-59722.37545456
-59717.35139804
-59709.76598929
-59725.09890642
-59724.6826084
-59714.38177805
-59709.76598929
-59724.6826084
-59722.39265441
-59724.09322019
-59716.98585465
-59724.37384327
-59721.95289714
-59720.71665314
-59712.48403953
-59712.12460677
-59723.89142207
-59725.30964816
-59722.44021268
-59726.70159215
-59720.05665916
-59724.61000381
-59711.66637057
-59721.41671468
-59719.31282977
-59711.66637057
-59723.03047942
-59718.32468591
-59711.66637057
-59723.45631667
-59719.10656719
-59717.71832207
-59711.93562159
-59724.6826084
-59714.60948596
-59720.54583654
-59719.61445186
-59724.08146452
-59721.86689302
-59721.56021595
-59709.76598929
-59723.93944866
-59711.66637057
-59723.53232492
-59712.62912637
-59718.97371439
-59718.07802186
-59716.23480377
-59726.0477208
-59718.95481909
-59709.76598929
-59727.12366572
-59722.44021268
-59725.97965124
-59720.02430695
-59722.42408597
-59721.93026078
-59725.71827004
-59723.96508329
-59721.36434535
-59723.89529596
-59722.92874395
-59723.14446917
-59717.72860149
-59715.75232256
-59724.46944595
-59724.58067237
-59713.88685181
-59722.54385308
-59717.20746355
-59714.06547069
-59714.60948596
-59723.11350011
-59722.09562801
-59714.60948596
-59722.31282192
-59718.90731185
-59717.97251554
-59725.60788234
-59715.14636512
-59722.50093156
-59724.13587659
-59722.21041882
-59724.0200453
-59709.76598929
-59719.62535535
-59721.34783767
-59723.68913588
-59722.41724877
-59726.22910469
-59724.7601266
-59715.26081635
-59723.55695668
-59724.17944483
-59718.30063455
-59722.81572365
-59717.8327596
-59717.00602276
-59713.3480063
-59722.24235358
-59718.51191259
-59714.82187531
-59723.90907917
-59722.25317716
-59722.39511175
-59723.33072329
-59723.96863631
-59723.12430472
-59721.49966175
-59721.93026078
-59720.00490781
-59713.50039937
-59724.08384198
-59716.14492956
-59722.66620352
-59709.56203463
-59709.76598929
-59721.1142387
-59722.83673613
-59715.75232256
-59723.89229781
-59720.17869281
-59726.3625259
-59711.66637057
-59709.76598929
-59714.60948596
-59715.75232256
-59721.2953601
-59716.83933305
-59722.60269654
-59719.59832572
-59726.07871273
-59716.13552997
-59721.89277662
-59724.13597924
-59710.497128
-59723.75739082
-59714.60948596
-59715.22508386
-59714.60948596
-59718.01019462
-59716.97835685
-59709.76598929
-59717.47996621
-59716.40593301
-59726.81853573
-59724.47389167
-59727.56144212
-59713.35277286
-59722.08250435
-59718.81380736
-59718.35157593
-59717.47645872
-59723.94222599
-59717.34912171
-59726.92975405
-59718.72408027
-59724.3815495
-59721.69340979
-59723.85453737
-59723.00892558
-59717.04631325
-59718.04613489
-59716.09897129
-59718.00194678
-59723.58905207
-59716.72046812
-59718.25949012
-59721.28645583
-59729.6385643
-59723.98695704
-59711.66637057
-59724.6826084
-59722.82605377
-59723.40722905
-59715.75232256
-59722.2270437
-59724.6826084
-59718.10935867
-59726.38342086
-59727.22333387
-59720.50966627
-59724.7128599
-59716.28959896
-59720.57455398
-59718.93539052
-59714.60948596
-59723.21581497
-59722.60016776
-59720.78247381
-59713.69651102
-59723.57029974
-59725.84031777
-59722.72318792
-59723.74646256
-59725.12840177
-59720.47739395
-59721.71497155
-59713.14826521
-59720.65957231
-59722.42530168
-59722.14742438
-59711.31637798
-59714.93230778
-59726.06395238
-59715.99044013
-59722.28246907
-59724.84498035
-59723.42468501
-59726.3625259
-59722.29745823
-59718.46209769
-59720.78644553
-59722.52398875
-59711.66637057
-59718.04073564
-59711.66637057
-59723.61524494
-59725.55928451
-59722.93154657
-59714.23100582
-59708.7633813
-59725.72474612
-59716.15409974
-59724.89402759
-59719.50158352
-59714.63608928
-59726.3625259
-59727.48078201
-59716.56442909
-59723.55643585
-59726.85974466
-59719.86609853
-59718.00671503
-59714.60948596
-59723.46598479
-59723.91968623
-59724.6826084
-59723.13040411
-59716.91618079
-59711.66637057
-59722.13130615
-59714.54738033
-59720.45875791
-59716.17846198
-59722.57433218
-59716.32920603
-59719.25252575
-59725.44971111
-59722.38905675
-59721.63922543
-59717.98639028
-59716.37746505
-59715.96692444
-59720.89694433
-59716.25299879
-59726.33643411
-59720.88525255
-59717.97543421
-59715.70892848
-59712.72580513
-59719.9744217
-59718.64062735
-59718.86201157
-59724.74936279
-59711.66637057
-59714.74339163
-59719.57454693
-59724.44021958
-59722.58170082
-59715.7124381
-59718.63856915
-59725.07787094
-59722.21291673
-59722.38910959
-59715.96935256
-59723.44845735
-59715.69706728
-59722.08222764
-59725.70424157
-59717.74783963
-59720.70681718
-59723.26126438
-59716.65493087
-59719.25224076
-59716.43775953
-59709.76598929
-59725.78981803
-59716.5730611
-59717.62936579
-59721.7387841
-59718.28819226
-59713.07263912
-59714.99627701
-59719.69643083
-59715.37977788
-59726.95778531
-59721.25604898
-59713.40580737
-59725.03389119
-59727.85353767
-59714.60948596
-59725.260091
-59714.01874201
-59720.07774132
-59719.93473464
-59727.01389884
-59716.43352024
-59713.61034107
-59714.60948596
-59719.95329738
-59714.97075887
-59722.21703721
-59714.87644648
-59714.60948596
-59722.12621595
-59726.08244001
-59722.41573502
-59714.61967679
-59715.90752043
-59719.76027837
-59722.71782524
-59725.27137484
-59724.6826084
-59715.34827207
-59722.67035705
-59709.76598929
-59719.92256603
-59716.67993672
-59714.33868585
-59725.27867007
-59720.22285484
-59722.50196395
-59716.80603999
-59729.24022351
-59722.44021268
-59714.60948596
-59714.60948596
-59720.25986996
-59722.43630307
-59721.27214781
-59720.36774548
-59726.85731157
-59714.60948596
-59709.56203463
-59723.47961453
-59726.97689451
-59725.48161943
-59724.30494884
-59721.90413015
-59723.48524241
-59723.47134925
-59714.67009661
-59725.9196268
-59721.99871617
-59713.2482023
-59713.88694159
-59723.18328663
-59722.53833532
-59720.50475313
-59726.78601825
-59723.34290675
-59717.48767353
-59721.47723503
-59722.82712269
-59714.60948596
-59723.25020234
-59724.77856876
-59719.76206404
-59719.18614775
-59722.41832709
-59720.94462303
-59714.60948596
-59722.58764384
-59722.13894678
-59719.11528884
-59724.42581553
-59724.63781581
-59711.66637057
-59722.44021268
-59722.46878873
-59715.46592874
-59718.26678437
-59724.41436189
-59712.68196376
-59715.22352796
-59713.49545279
-59713.86889414
-59717.97689314
-59718.895837
-59725.47093337
-59718.17322744
-59725.21290009
-59724.6826084
-59720.94403455
-59719.45827965
-59726.0491305
-59718.61696544
-59718.95121324
-59724.35914337
-59721.09130206
-59722.17569597
-59715.75232256
-59723.20146106
-59724.31395942
-59718.19181576
-59724.00286191
-59725.44369754
-59723.1240741
-59712.64714062
-59724.97995198
-59715.33894186
-59714.18324156
-59725.52753234
-59723.61779056
-59718.71059181
-59718.84594701
-59720.27290065
-59709.56203463
-59714.44334698
-59722.69064849
-59725.21512619
-59717.75857476
-59715.20804679
-59726.07432233
-59714.60948596
-59722.78209505
-59712.75907445
-59722.72665139
-59722.73630192
-59715.769326
-59722.30149939
-59723.32012282
-59720.67662579
-59722.60269654
-59724.74026157
-59719.80818622
-59723.57598898
-59727.08529571
-59722.63967835
