-59721.14638791
-59722.00094090
-59722.22312856
-59722.10324766
-59727.13525685
-59721.94922980
-59722.88407956
-59724.27247404
-59725.13819222
-59725.34769180
-59725.27976870
-59723.63359611
-59723.39824229
-59727.60942253
-59723.64833243
-59726.58417599
-59720.93683120
-59724.69561091
-59723.86699336
-59723.08197043
-59726.04875848
-59727.32067306
-59722.37273042
-59723.11330338
-59727.81013588
-59723.71320835
-59723.76933040
-59723.78083746
-59722.82089099
-59724.29675399
-59722.95596663
-59726.28850618
-59728.04232702
-59725.02233972
-59724.45010854
-59724.69989201
-59723.43212832
-59730.79584337
-59724.56313752
-59721.54375118
-59722.36142618
-59729.76725489
-59724.76152124
-59723.68785718
-59726.14488280
-59723.64714873
-59723.21099865
-59725.61615233
-59725.00042421
-59725.13962985
-59722.79060776
-59726.71883041
-59720.10003919
-59721.55776007
-59725.15358996
-59726.75874583
-59727.31023733
-59726.34502573
-59727.66312396
-59722.63109443
-59725.13469203
-59728.40735051
-59722.63680432
-59727.93460420
-59717.66341260
-59727.44867465
-59734.85060649
-59727.31914082
-59726.71033511
-59728.92054755
-59722.67358749
-59723.57715675
-59725.31949680
-59728.39366302
-59721.87802655
-59723.58000228
-59726.52329275
-59726.02355448
-59723.20771575
-59724.96277773
-59723.97042194
-59724.05596428
-59727.35498495
-59726.55009236
-59724.13642540
-59722.96525227
-59725.99186185
-59723.81400398
-59722.85833802
-59722.30600040
-59723.74554670
-59724.11208555
-59727.32961328
-59727.64461461
-59720.12780991
-59725.68582879
-59725.09023365
-59725.31028485
-59728.70355765
-59721.81232397
-59724.51458695
-59723.04699482
-59724.43380334
-59726.64294408
-59726.18178051
-59721.83123436
-59724.14932711
-59737.50259465
-59720.68262797
-59726.53218801
-59726.01706746
-59725.03279437
-59726.91657812
-59723.05680239
-59725.09504781
-59726.66456401
-59724.94704700
-59721.39156156
-59727.18816768
-59719.85150498
-59723.64704043
-59723.39278659
-59726.87123909
-59727.73492650
-59723.13008479
-59721.20709666
-59723.42114482
-59724.83832434
-59721.99320797
-59725.24081929
-59725.11116854
-59724.58494249
-59723.27939016
-59724.06079885
-59724.77436796
-59722.50432301
-59724.42882469
-59726.11335647
-59726.34328213
-59724.97760123
-59723.42815195
-59725.46412614
-59722.23893510
-59723.83610311
-59729.00091983
-59725.27492342
-59722.22992491
-59724.61215906
-59722.95533560
-59726.15569439
-59723.54416783
-59726.95331159
-59722.06763161
-59728.48455503
-59724.82185194
-59721.55888048
-59724.58127815
-59724.40943019
-59721.26930297
-59725.74083364
-59725.58340037
-59723.36516003
-59725.35445691
-59724.63893928
-59726.91985855
-59722.20879437
-59721.93255288
-59725.43419248
-59723.48868058
-59735.17121539
-59723.83753378
-59721.93166725
-59721.86076196
-59730.65772425
-59718.98241522
-59722.47877020
-59721.65070246
-59724.44940208
-59723.99508417
-59724.39440546
-59722.13743234
-59725.48910190
-59717.99753874
-59726.24912323
-59726.40216584
-59724.72234078
-59727.10772133
-59720.62465436
-59721.78361612
-59725.53098627
-59722.35088534
-59727.47363390
-59729.74048565
-59726.03163894
-59725.37185180
-59726.58185101
-59725.08898420
-59721.02457392
-59726.31457480
-59727.04727251
-59725.31936298
-59720.93548168
-59718.12024994
-59723.94519737
-59724.86519399
-59720.92760925
-59728.98260615
-59726.03411610
-59726.04694846
-59725.42644127
-59723.64037546
-59726.92059906
-59724.29366649
-59722.84981940
-59726.47201799
-59723.17197091
-59726.40685674
-59723.38924104
-59720.35466134
-59724.03277575
-59727.07934363
-59722.37111462
-59724.91434332
-59724.28458516
-59725.32997379
-59725.23166777
-59725.75117510
-59722.81126598
-59730.71772116
-59725.84456808
-59726.44264646
-59719.87914233
-59722.70592591
-59724.44420596
-59726.31048484
-59720.53885841
-59723.86097193
-59723.92308253
-59732.33884547
-59724.14076042
-59727.02035628
-59723.78558726
-59722.57979250
-59727.64684987
-59724.94774563
-59723.42375669
-59723.53416954
-59726.97346061
-59722.32337575
-59725.59852333
-59722.20301893
-59724.09792567
-59722.94213457
-59722.27985619
-59721.62600009
-59727.47022416
-59735.66728924
-59725.74494280
-59727.86936299
-59723.87203471
-59721.35817607
-59724.45835778
-59726.09458610
-59724.33687869
-59722.91551586
-59721.39616724
-59724.45252268
-59724.80380304
-59727.19405461
-59725.72234064
-59725.14762108
-59723.02666128
-59725.56051280
-59726.97529279
-59726.67818591
-59724.14397012
-59726.18462424
-59724.73490887
-59726.57363529
-59726.77490056
-59726.02238078
-59720.91472243
-59725.52438504
-59727.19193536
-59722.45735434
-59725.56920391
-59722.73242423
-59723.29080536
-59726.98672728
-59725.72715970
-59724.81686735
-59723.06506066
-59723.77277505
-59723.55584733
-59726.66508247
-59722.82863718
-59724.68780223
-59723.90400662
-59726.31858876
-59725.90702269
-59722.55159676
-59722.87891145
-59721.83995978
-59721.60843364
-59735.36161583
-59734.67916261
-59721.78746951
-59722.02146021
-59726.20653184
-59727.44284810
-59723.51070973
-59721.82789511
-59725.41084809
-59725.53291648
-59727.04243969
-59723.39410889
-59725.58716675
-59728.04810733
-59725.07893500
-59721.25671850
-59722.09532595
-59722.36643895
-59727.68283688
-59724.27133178
-59723.55031739
-59720.54699280
-59725.09049690
-59724.79387351
-59724.21758251
-59725.58602160
-59720.49832208
-59728.27125201
-59724.78468292
-59723.19196081
-59722.97071291
-59727.85013140
-59725.42981827
-59723.94634977
-59724.84896001
-59727.83289483
-59722.43634837
-59726.20951971
-59720.62734695
-59727.04888267
-59722.81621686
-59722.92002740
-59722.31123707
-59724.00461528
-59725.63931085
-59724.39721125
-59725.03350806
-59724.29094206
-59723.31569889
-59725.00202755
-59724.05887208
-59722.57551139
-59724.61137975
-59721.39388544
-59727.40037833
-59727.92123371
-59723.83026776
-59723.26515503
-59724.91712837
-59722.77860082
-59725.61562262
-59726.69082173
-59725.13144063
-59723.48476888
-59727.96770557
-59725.37534980
-59726.11031482
-59723.32318935
-59723.21599666
-59726.60242301
-59721.83021199
-59727.03000092
-59726.06521231
-59726.32766795
-59725.18451083
-59727.31462331
-59731.62015746
-59726.00078851
-59725.51113804
-59724.26863315
-59722.67419588
-59723.26540559
-59725.30219124
-59723.82220412
-59723.75583809
-59727.06069073
-59724.96104991
-59723.88677684
-59724.20693415
-59723.98207382
-59724.38418299
-59724.42147494
-59725.40475565
-59724.91434184
-59722.78513942
-59724.89724065
-59725.28004573
-59724.28396448
-59725.90789315
-59726.83020906
-59720.89142348
-59725.35182021
-59724.58567430
-59729.73335780
-59723.61622550
-59727.71444972
-59724.77985163
-59724.99286844
-59723.88889962
-59721.77712752
-59723.47977983
-59723.18342215
-59722.11741226
-59722.42910176
-59726.28636031
-59722.46786032
-59724.46854787
-59723.36844232
-59726.33927740
-59723.08406836
-59724.37260890
-59725.49934331
-59722.62936211
-59726.75471752
-59720.78951947
-59722.26632699
-59723.65919425
-59725.44795314
-59722.84696014
-59726.16041075
-59724.98810219
-59724.87614598
-59722.30410897
-59726.91905387
-59727.30717998
-59724.92300412
-59724.10910564
-59724.26619438
-59724.51216316
-59725.38597354
-59726.42742888
-59722.07597026
-59722.78260962
-59721.99558830
-59724.27114990
-59723.37529921
-59730.31825052
-59722.83259904
-59725.78169208
-59721.60714721
-59723.00985478
-59722.08732371
-59728.35671900
-59725.06957411
-59724.51489234
-59722.37055035
-59726.81102565
-59728.23089010
-59723.17509682
-59724.96083730
-59723.43715632
-59719.99974988
-59726.03756570
-59724.94458492
-59727.47644503
-59723.85536706
-59722.86020188
-59726.17781221
-59726.77775473
-59725.68646482
-59722.61210087
-59723.32077233
-59722.68346787
-59725.46011466
-59723.80674817
-59725.08268092
-59719.79584728
-59722.03633041
-59722.87347435
-59727.32574794
-59723.44508424
-59724.18112260
-59727.61744767
-59726.96918808
-59724.53787167
-59722.58877270
-59723.48438611
-59726.82104059
-59725.32513910
-59726.53594907
-59720.86657258
-59723.14781349
-59720.23942099
-59723.30339476
-59724.39802907
-59722.03901090
-59726.26758437
-59724.53182882
-59722.89324103
-59728.23452712
-59733.85544196
-59724.82170823
-59733.76803114
-59724.53809586
-59726.07578232
-59722.32983387
-59724.84848690
-59725.05603385
-59726.56246316
-59720.04367657
-59723.39725665
-59721.72266099
-59721.44333302
-59719.85138646
-59722.18984782
-59723.42738950
-59723.50328659
-59723.27437849
-59721.48552052
-59724.38064320
-59723.01120269
-59724.64435762
-59723.96515499
-59728.22273351
-59726.01481483
-59725.87224382
-59724.04149294
-59722.41898116
-59725.35039661
-59724.34522394
-59727.08660447
-59722.55253159
-59724.60502292
-59723.46077175
-59726.02343120
-59725.34893717
-59722.77811681
-59732.53262510
-59721.13223317
-59723.44879510
-59726.14545972
-59723.49949531
-59728.11779961
-59719.37362880
-59722.48856742
-59723.86900005
-59726.05349902
-59723.03453473
-59720.66342218
-59723.52803798
-59734.09057227
-59724.30373885
-59723.75902325
-59724.38443633
-59721.48084786
-59726.17746017
-59726.33462483
-59723.69630847
-59724.65174699
-59723.39229354
-59726.66251401
-59726.49449141
-59726.25191857
-59723.96115185
-59727.78450085
-59723.73982988
-59724.59765664
-59723.49620270
-59727.39278683
-59722.53255889
-59726.37086615
-59726.49227820
-59723.82084162
-59724.81597853
-59722.99320512
-59728.09936207
-59728.89988546
-59723.06278324
-59726.15870562
-59729.79147394
-59722.61724022
-59724.11727567
-59727.00047090
-59723.88742070
-59726.16097558
-59725.05361918
-59719.60534093
-59726.01843955
-59723.11704956
-59726.93700017
-59724.26673079
-59724.71246139
-59724.33989416
-59724.01786175
-59726.47687809
-59723.71273191
-59720.53761653
-59721.23056028
-59725.35624713
-59722.36975996
-59724.75304550
-59725.91832859
-59724.22367555
-59720.57821741
-59724.70747412
-59726.68623087
-59727.31810008
-59722.46017468
-59718.50865915
-59719.72344508
-59725.43801342
-59726.15548761
-59726.29047078
-59719.41467849
-59721.15980630
-59726.39209989
-59723.92115733
-59724.14058344
-59722.18472185
-59721.67309646
-59723.57671357
-59725.35666934
-59727.36604301
-59724.19346061
-59725.90031484
-59725.94440462
-59723.42953494
-59726.83808962
-59725.34803813
-59723.63579838
-59724.09894884
-59723.86331244
-59723.87160297
-59723.83870414
-59725.78423869
-59725.80906746
-59732.21742840
-59722.55111373
-59721.54908222
-59725.25913322
-59718.55659307
-59725.72692490
-59725.94280262
-59723.34067571
-59722.90165792
-59724.10666976
-59726.37161130
-59726.05699305
-59725.85695676
-59726.59709475
-59724.62449286
-59725.00198727
-59725.81664756
-59726.05350263
-59727.42897630
-59722.31418476
-59725.78352589
-59725.79519082
-59721.99690416
-59727.01729294
-59726.71501787
-59724.09174894
-59728.27076284
-59722.63824937
-59725.55150442
-59725.18720585
-59721.65853937
-59726.37477865
-59723.91610465
-59725.79938777
-59725.81766849
-59724.92021656
-59724.50698015
-59723.25264315
-59734.74279482
-59723.96453630
-59726.02126904
-59725.58770763
-59722.45197352
-59727.48085815
-59723.50127593
-59724.33772365
-59724.48033718
-59721.50922113
-59725.09381770
-59726.54407540
-59729.24018799
-59722.63407959
-59723.24465473
-59724.96435339
-59724.03894228
-59725.01459535
-59722.41596980
-59724.01679964
-59725.22205729
-59720.44952844
-59725.92016324
-59723.29137274
-59724.15299928
-59722.82695024
-59726.72422411
-59725.52590188
-59723.40568483
-59724.68945854
-59723.45998196
-59721.72442376
-59729.13120022
-59723.63010148
-59724.51391751
-59723.12984914
-59722.34116175
-59721.20324953
-59723.88162089
-59725.58451720
-59729.17142819
-59727.52479962
-59724.16225793
-59725.32726076
-59729.25761726
-59726.52677759
-59721.89345356
-59723.69729437
-59726.10730242
-59724.98530258
-59722.77066430
-59725.99318947
-59723.33466306
-59724.49305022
-59725.01583312
-59724.55902838
-59724.91244616
-59723.14693449
-59726.76591628
-59722.72825782
-59724.82927781
-59727.72750022
-59724.97962732
-59721.58356784
-59726.48672217
-59727.56447721
-59725.48391419
-59725.96076244
-59722.14370463
-59723.10350787
-59725.81403692
-59729.51326984
-59729.20183130
-59727.57973868
-59728.07012506
-59729.41535361
-59724.11328401
-59725.55417440
-59724.21440536
-59723.49481370
-59723.54372762
-59723.45818722
-59727.53650811
-59724.27550032
-59726.65843639
-59722.68623800
-59725.50853414
-59723.46154173
-59722.82900209
-59724.53972011
-59725.67942321
-59722.96909464
-59723.62655277
-59723.10237248
-59723.00456396
-59726.22143040
-59721.98527037
-59728.88880471
-59724.11800864
-59724.35241212
-59723.61931527
-59723.64567869
-59721.28668409
-59724.62194990
-59722.42294086
-59727.28576948
-59723.87945232
-59723.48645459
-59723.00406010
-59725.03206426
-59722.92969499
-59725.56143285
-59726.61992877
-59724.74423720
-59724.60486052
-59722.10045051
-59726.31838700
-59723.17982239
-59728.76541382
-59724.93259622
-59730.83988169
-59724.57567783
-59724.72276812
-59721.13410338
-59724.38662127
-59725.74636883
-59725.69875036
-59726.66306710
-59725.52395264
-59721.31436475
-59723.04372502
-59723.27856767
-59723.93232965
-59721.55582552
-59721.67061463
-59726.74510583
-59722.78696201
-59724.33613369
-59728.93052519
-59719.47591016
-59724.38029015
-59725.48852190
-59722.77015905
-59723.36672497
-59724.36424707
-59724.23009011
-59726.01513740
-59725.24440709
-59725.68234689
-59726.34147138
-59720.12500610
-59720.95994392
-59723.78519197
-59723.38475104
-59724.02909325
-59726.48848923
-59726.27088758
-59720.53658109
-59723.67269295
-59724.80947510
-59724.76538040
-59722.43244100
-59721.36550903
-59726.12519419
-59723.71306293
-59722.80514654
-59724.60876609
-59723.07748316
-59725.80975148
-59723.80417444
-59724.44727995
-59725.73031862
-59726.08073320
-59726.38900351
-59720.36594362
-59723.23259683
-59727.30149619
-59726.41812531
-59724.94990535
-59728.38956246
-59723.20936843
-59727.51338610
-59728.31150642
-59726.10137297
-59724.33091215
-59722.97078280
-59724.62999508
-59722.63298034
-59722.40401957
-59724.59219835
-59724.12322560
-59722.20007018
-59727.07016374
-59723.67732683
-59725.58988817
-59723.54157730
-59728.94675325
-59721.78988677
-59721.35224970
-59721.35172056
-59723.81708222
-59730.09659732
-59733.75825953
-59722.14244730
-59724.27968788
-59728.73724181
-59728.02269689
-59723.61274772
-59723.46884478
-59724.53054593
-59719.67423328
-59720.06046719
-59724.45351113
-59724.56987381
-59723.57867782
-59726.60579008
-59725.09712993
-59725.46498202
-59722.96853782
-59723.00797199
-59726.11876499
-59724.18999219
-59725.10644958
-59722.65349258
-59727.52240033
-59723.34333061
-59723.51494600
-59728.92469040
-59724.22582837
-59722.38969827
-59725.29842267
-59730.59219193
-59722.94703712
-59724.53855077
-59721.62567927
-59726.97866873
-59727.01987386
-59721.88328420
-59725.32353149
-59723.77522276
-59727.19652364
-59725.86048423
-59724.89140079
-59725.27419890
-59723.50042090
-59726.18584275
-59725.99141210
-59722.71414129
-59719.84146183
-59727.46877192
-59719.63725841
-59726.23281311
-59723.50924825
-59724.10131739
-59721.12602803
-59726.58036000
-59721.14977382
-59723.98100588
-59727.46890741
-59726.63563868
-59725.87677800
-59727.03316394
-59726.28495287
-59723.08174746
-59722.52391305
-59722.19160940
-59726.25170507
-59725.79532868
-59723.90882168
-59723.12257552
-59723.55507319
-59720.97997735
-59721.99695257
-59725.28755665
-59724.18267467
-59725.32836295
-59724.86789536
-59725.19410066
-59726.17186009
-59727.61179319
-59725.48008609
-59725.46401718
-59725.36051921
-59724.32753174
-59724.68960902
-59724.71154660
-59722.38277870
-59725.42539301
-59721.99761123
-59723.99817987
-59724.52040082
-59728.27877057
-59724.10300943
-59724.22681837
-59724.10824080
-59726.89912752
-59725.17429513
-59723.07062579
-59727.38295723
-59722.74545475
-59728.22180181
-59724.87729922
-59723.11763911
-59722.24413900
-59723.90061002
-59723.39851370
-59725.99485165
-59725.20228595
-59723.92346155
-59724.63160870
-59725.16077248
-59723.18851993
-59723.41298786
-59726.61484341
-59721.73071519
-59720.92327112
-59727.02641761
-59721.43628781
-59724.30900719
-59722.72191083
-59722.02665280
-59726.88568839
-59724.04491726
-59723.69939610
-59723.23565819
-59727.52570644
-59725.63752096
-59724.88355082
-59726.10264522
-59724.13698656
-59724.37533447
-59725.12020827
-59725.25051610
-59722.74670408
-59724.75663412
-59724.26683700
-59724.71171521
-59727.24676761
-59725.64533573
-59725.41110292
-59728.58407793
-59727.21081737
-59723.67179128
-59725.81194580
-59723.79453731
-59725.26468149
-59724.00786684
-59725.81162609
-59725.82466401
-59720.69476128
-59723.09893543
-59720.82467857
-59724.53544605
-59724.43474910
-59724.65863221
-59723.61056259
-59726.54118323
-59725.46014376
-59725.98545156
-59726.90588817
-59726.16892562
-59724.97009460
-59726.16516983
-59726.37693219
-59725.75495859
-59726.69452766
-59727.01510082
-59727.18899085
-59725.03419415
-59728.61486183
-59725.96268365
-59725.98688507
-59726.18210152
-59724.07527629
-59725.44371280
-59725.14091753
-59722.66339267
-59721.95505512
-59727.10244017
-59726.80327064
-59723.19619306
-59724.79769987
-59719.32531019
-59722.91936797
-59725.46164622
-59727.71914900
-59725.27983463
-59734.89095480
-59722.02992025
-59720.57244704
-59722.92164068
-59728.37202063
-59724.09391518
-59728.21728193
-59722.58953965
-59724.85639400
-59724.15201810
-59722.90153989
-59721.89458035
-59725.42859105
-59734.03060446
-59725.16991073
-59728.49626869
-59725.90917736
-59722.89546081
-59721.59739516
-59724.25142814
-59728.51694284
-59723.68196937
-59729.09558896
-59720.98209499
-59722.72527289
-59722.98122926
-59725.19292606
-59726.60220854
-59727.00220913
-59725.74159096
-59728.92581892
-59726.16795506
-59725.81467547
-59724.88025098
-59722.64070350
-59728.47816137
-59721.80530594
-59721.32574142
-59722.84044754
-59723.34186937
-59723.87002323
-59725.74252687
-59723.43182582
-59724.59880403
-59721.42667762
-59722.76211315
-59725.59328775
-59721.85263120
-59725.75663533
-59725.31966535
-59716.78005200
-59725.12660410
-59726.90736968
-59717.63018816
-59724.07048159
-59719.43841614
-59725.99052774
-59726.92075760
-59718.26893581
-59725.60989531
-59723.02147449
-59723.01761782
-59725.29963353
-59725.91683911
-59721.68072260
-59722.59849144
-59726.57369050
-59725.76992882
-59720.17925653
-59725.61580556
-59725.20217980
-59725.21208756
-59722.89266853
-59725.55979603
-59719.55335997
-59723.37495000
-59721.92147207
-59725.18011082
-59727.69369873
-59724.08952521
-59727.36650375
-59726.21158024
-59731.90398011
-59722.69075302
-59734.56119620
-59725.16521444
-59720.25670562
-59727.98962550
-59726.88632043
-59723.29614753
-59725.67364184
-59727.82983211
-59723.02731872
-59722.91289625
-59724.37315489
-59724.80597123
-59721.59684582
-59727.39324046
-59721.79449298
-59720.96178485
-59722.79207188
-59720.07915327
-59723.49735109
-59724.33192030
-59727.43445424
-59726.02458109
-59724.39893924
-59727.07005578
-59727.08339229
-59725.04342584
-59724.85884216
-59725.49401690
-59722.71756059
-59723.91240048
-59728.51720925
-59725.20290132
-59723.38776925
-59726.34706353
-59726.57962103
-59723.67100393
-59727.22303111
-59724.62640894
-59727.66303887
-59724.93931069
-59722.35972923
-59722.82958286
-59731.93992555
-59721.62002677
-59722.98664855
-59721.08833647
-59722.29194862
-59724.98923898
-59724.00214850
-59725.80174925
-59722.43901014
-59728.09355891
-59723.18988151
-59722.95094546
-59725.60834145
-59722.79200619
-59721.74291328
-59723.07108659
-59720.83170516
-59724.67040173
-59727.07517213
-59727.00132347
-59722.29927431
-59723.20963293
-59721.94959983
-59722.71188409
-59726.84886678
-59726.79457653
-59725.15637732
-59720.00549361
-59727.16567045
-59728.74730808
-59722.76327635
-59726.30576794
-59723.72931833
-59726.79969065
-59726.15394395
-59724.45959144
-59721.36041109
-59725.35485180
-59726.23263625
-59724.08210006
-59724.78138671
-59720.91619282
-59724.06795222
-59723.93690877
-59724.69292053
-59723.52612777
-59722.79812567
-59724.11974422
-59724.11291119
-59723.52411470
-59722.39271067
-59726.14612553
-59724.01320085
-59723.64011770
-59722.98740095
-59724.11863669
-59725.31899434
-59722.06285972
-59725.98227753
-59722.83460662
-59723.60070890
-59724.09598290
-59725.71930768
-59726.66009303
-59724.33766514
-59722.06954801
-59724.81043855
-59722.95705058
-59722.90893815
-59722.79274172
-59723.33041665
-59728.26123504
-59723.30796287
-59720.94288363
-59727.45180172
-59722.68885167
-59726.29841874
-59725.31037423
-59721.71657598
-59725.58407680
-59722.51060410
-59723.13865676
-59723.79362248
-59728.22626305
-59724.61540756
-59724.37812859
-59724.78803161
-59727.50018035
-59723.17639041
-59725.90328265
-59724.34952229
-59725.84230313
-59724.93985142
-59723.76553915
-59727.40947262
-59723.26838698
-59726.59752194
-59728.48434054
-59728.25361234
-59722.39765699
-59724.64252583
-59726.09842737
-59725.34999133
-59721.37653332
-59725.90067195
-59722.57737142
-59728.78366800
-59723.75618926
-59725.69184888
-59723.82797031
-59728.20511922
-59723.73002244
-59721.03964271
-59723.00096414
-59726.01013434
-59727.11753870
-59722.06038934
-59726.48750945
-59720.39560089
-59725.24379745
-59721.76615059
-59727.29595918
-59724.10068507
-59723.65130308
-59726.78586335
-59723.88020801
-59726.29493013
-59723.72563989
-59725.80754364
-59726.57440357
-59723.88506237
-59722.40344084
-59725.16437904
-59728.25587745
-59723.55000585
-59724.54616924
-59725.76331764
-59732.51032458
-59722.28076312
-59723.53683052
-59724.13495679
-59720.63008067
-59722.64806945
-59725.29538301
-59727.08334233
-59723.34334263
-59722.06237920
-59723.57828598
-59723.69576653
-59723.45883022
-59726.58573968
-59722.73281757
-59723.65216637
-59727.61421736
-59725.81361955
-59726.00687618
-59724.96914874
-59723.62319048
-59726.39006860
-59721.42399994
-59728.04305314
-59724.62166425
-59720.91394380
-59728.97253362
-59724.51080871
-59733.18112164
-59726.98448069
-59726.91865247
-59725.35603068
-59726.48883761
-59722.72382243
-59722.69009603
-59728.46015308
-59722.06572402
-59720.44177325
-59723.83725263
-59722.20085635
-59723.91568984
-59723.20641089
-59725.72579399
-59724.28837246
-59725.63341732
-59725.46888384
-59726.06564136
-59724.71622300
-59723.54061497
-59721.25773757
-59721.42132646
-59722.30899623
-59726.84311918
-59725.99871099
-59721.37331505
-59721.05522526
-59727.91120226
-59724.85991631
-59724.63315481
-59721.42162875
-59723.66781838
-59725.16365399
-59726.79929783
-59725.82108425
-59725.34781108
-59726.53291724
-59722.31558658
-59724.47387032
-59721.74765193
-59726.63696189
-59726.54628854
-59723.40127845
-59727.87452157
-59728.07614627
-59721.88063531
-59724.37313191
-59722.39054401
-59724.89586911
-59724.08386873
-59723.79344890
-59723.71368916
-59728.09101647
-59725.79770510
-59728.43189990
-59724.97666402
-59725.97947924
-59723.40996176
-59726.18955465
-59724.95864461
-59723.61715337
-59725.24292799
-59725.42052941
-59725.55645076
-59722.69820690
-59724.93829424
-59722.98344861
-59721.30924679
-59727.03391539
-59723.71329253
-59725.07248081
-59722.20121020
-59724.02366808
-59727.76169490
-59724.70071752
-59727.54675159
-59722.73666328
-59719.01996161
-59724.47887304
-59725.91087097
-59722.28261632
-59728.62427325
-59724.20862332
-59725.08914626
-59725.37136850
-59722.17772601
-59724.25225731
-59728.92005894
-59725.42630972
-59725.04221695
-59723.41344343
-59723.50262117
-59728.75018017
-59725.78017520
-59726.43891553
-59723.55183890
-59719.37183110
-59724.49127395
-59722.49391227
-59729.36963828
-59722.19098500
-59726.59370572
-59720.21968116
-59720.32181302
-59726.68002465
-59721.83364446
-59728.38910757
-59727.86552486
-59725.63852986
-59729.32725443
-59725.21857328
-59722.77446814
-59723.70234702
-59723.67226542
-59720.51865278
-59723.70235218
-59722.38271043
-59723.06923885
-59723.94837593
-59724.53258555
-59722.20059612
-59720.63137127
-59727.50065605
-59734.41136190
-59727.05902971
-59724.93844494
-59724.40144270
-59722.00836591
-59724.20360503
-59723.97465465
-59720.31692323
-59720.83393816
-59719.11935159
-59721.38057358
-59725.35851781
-59722.23467301
-59721.75753055
-59724.74638916
-59724.71414807
-59720.68197682
-59724.24151730
-59723.39453348
-59722.00936876
-59721.34197592
-59724.52916145
-59727.00327990
-59722.83896433
-59724.58290082
-59725.14430129
-59725.27479791
-59722.72877934
-59724.41657038
-59726.31643651
-59726.85782472
-59726.17075826
-59725.47240970
-59728.14447039
-59727.93290337
-59722.11580890
-59721.77038591
-59724.85152099
-59726.05997798
-59727.06932203
-59723.39601313
-59722.40713473
-59725.40392035
-59724.38045364
-59722.55632446
-59727.25546690
-59723.97738803
-59728.13101930
-59725.62097158
-59726.43479357
-59724.76455564
-59722.69759936
-59725.96534435
-59725.79015093
-59723.52395390
-59731.83306979
-59724.49441425
-59724.38640287
-59723.21623433
-59727.22950305
-59731.78168070
-59721.14370131
-59722.60493316
-59723.61777696
-59724.54741982
-59724.56741512
-59725.77168975
-59722.83021070
-59723.26960917
-59723.47472724
-59730.00101827
-59727.02466333
-59725.87512942
-59722.23089279
-59725.08293574
-59722.86806899
-59722.33890597
-59722.37484648
-59724.31263737
-59725.98807372
-59725.92819323
-59725.66991858
-59726.58039246
-59726.37832750
-59727.33392318
-59724.85284723
-59725.86962033
-59724.02260059
-59724.83084033
-59725.74145198
-59726.87615778
-59725.67038985
-59725.72428255
-59726.40664324
-59724.02975607
-59723.56035558
-59730.28570796
-59726.35218986
-59721.14802471
-59725.04491666
-59725.21787513
-59721.40963024
-59724.63927889
-59728.60817971
-59722.59166385
-59723.34664944
-59724.09914698
-59721.52261700
-59727.13548733
-59722.13054590
-59725.47867987
-59726.49103977
-59726.45690011
-59726.22970743
-59736.29848872
-59726.47238900
-59725.16808670
-59725.53434294
-59723.02461929
-59722.48666296
-59724.55099649
-59724.50725446
-59727.31259422
-59721.43658751
-59726.44087260
-59724.65331059
-59723.82387493
-59723.28076026
-59723.81765480
-59727.24277030
-59727.85781063
-59723.67523348
-59722.30176394
-59725.31996637
-59726.92668343
-59722.53824367
-59724.75493624
-59724.12480404
-59722.47087162
-59724.12480091
-59728.04146121
-59726.95411398
-59726.03996959
-59726.87217864
-59725.62779441
-59726.74766536
-59722.22849544
-59723.86092898
-59725.02539186
-59722.00990879
-59726.33682876
-59725.01139756
-59724.46536544
-59724.72784964
-59727.29046411
-59726.49936823
-59727.65542216
-59730.00506431
-59723.43579894
-59721.38626922
-59726.35589830
-59722.99411595
-59727.40358919
-59726.31458188
-59725.50604089
-59723.23502733
-59722.99961018
-59723.95189621
-59723.69192658
-59721.90340385
-59723.55607933
-59725.55016800
-59726.92956082
-59727.03705179
-59724.95040357
-59724.30240648
-59726.27314025
-59726.35161190
-59726.25467600
-59726.60630159
-59727.55019104
-59724.93687567
-59726.38009664
-59723.07577938
-59723.77503087
-59725.07605863
-59725.63933534
-59725.68688780
-59723.41552802
-59726.26771849
-59729.85493702
-59724.85981968
-59723.03949132
-59725.90253616
-59722.69144608
-59724.08723540
-59726.24178920
-59721.86139543
-59727.44817831
-59726.18498287
-59719.58468382
-59721.92064150
-59725.58874188
-59723.76823435
-59728.23756031
-59724.94521562
-59724.22199023
-59723.40701697
-59723.97396540
-59720.58906395
-59725.79154823
-59727.30411709
-59724.40343549
-59727.93440466
-59724.07389202
-59723.98166985
-59726.37253847
-59727.67814976
-59722.33642105
-59726.37012825
-59724.78357019
-59722.38764451
-59725.07870211
-59726.00835496
-59725.20199745
-59724.18894915
-59723.33842225
-59724.26349165
-59726.24821938
-59730.00290262
-59724.18805276
-59722.11663900
-59720.46253236
-59723.25686877
-59725.66245882
-59723.74337709
-59723.85222200
-59725.96061996
-59735.63166661
-59726.66658776
-59722.71751258
-59727.92834446
-59723.80624155
-59724.00323923
-59724.49960390
-59725.46521956
-59723.18955617
-59722.93719786
-59724.42851987
-59726.26842804
-59726.51381058
-59721.24447703
-59720.31687412
-59726.75447461
-59730.64222826
-59724.28330966
-59726.11483987
-59725.56773702
-59724.15977441
-59722.41026001
-59722.93699813
-59723.10216893
-59726.67667223
-59723.81298190
-59724.49753947
-59722.88738617
-59719.56038129
-59726.59777195
-59730.64863462
-59725.87847360
-59726.83847829
-59723.91536099
-59722.33380075
-59723.84377681
-59722.10831093
-59722.01874062
-59722.93342821
-59721.64960048
-59725.95500659
-59726.00920822
-59720.82371582
-59724.18980474
-59724.37203667
-59723.93158111
-59725.26803851
-59725.34074827
-59721.07903126
-59725.92252273
-59726.70160681
-59721.38002826
-59726.45961137
-59726.17760059
-59727.45716063
-59729.08838025
-59722.29527388
-59725.88617491
-59727.23173079
-59725.47273937
-59722.18841328
-59722.71075441
-59725.48976544
-59720.23641548
-59724.72229786
-59721.66514730
-59723.71145550
-59721.82849069
-59727.53040481
-59724.30168817
-59722.98200970
-59727.72313834
-59725.31515760
-59723.53019917
-59726.69515356
-59724.84059032
-59724.39816839
-59723.35616197
-59724.38836669
-59725.71735669
-59726.91559566
-59727.09020519
-59725.83895940
-59722.09901155
-59719.97281392
-59726.30789746
-59725.61232815
-59726.85996137
-59726.47932772
-59723.34718826
-59726.48866895
-59723.36867144
-59722.91248017
-59730.03189629
-59726.14582372
-59724.85286061
-59727.00622324
-59728.87740636
-59726.14039884
-59725.18789868
-59727.43162281
-59724.34828536
-59726.74359927
-59722.88345828
-59722.65768313
-59726.65870179
-59725.65178532
-59726.03767284
-59727.01629998
-59722.07099474
-59725.96533416
-59723.74396021
-59724.73740693
-59723.49596833
-59732.78852588
-59723.61272448
-59726.07581083
-59722.79592482
-59725.46710501
-59722.73559309
-59725.52309622
-59727.97134829
-59727.20258054
-59723.60216696
-59722.05134978
-59724.84840868
-59723.53079392
-59728.88036016
-59721.10568768
-59724.44929250
-59721.48715021
-59720.95548254
-59725.63086476
-59726.41250568
-59724.26006686
-59723.95332337
-59722.75520633
-59724.75774100
-59728.21663170
-59727.54270441
-59724.89483980
-59725.05310153
-59728.34106254
-59725.76536399
-59724.20677513
-59726.36641107
-59721.54574075
-59722.56040720
-59725.46067423
-59727.58465987
-59724.54462868
-59720.78859544
-59725.36794605
-59730.08777058
-59723.25147434
-59724.71603085
-59720.86353548