-5.973018016861000069e+04
-5.972503532331000315e+04
-5.974004064955999638e+04
-5.974321384532999946e+04
-5.973096009225000307e+04
-5.973945918235000136e+04
-5.972984356292000302e+04
-5.973720731204999902e+04
-5.973332347424000181e+04
-5.973340632701999857e+04
-5.972296767576999991e+04
-5.972273347182999714e+04
-5.972862883033999969e+04
-5.972719920814999932e+04
-5.971905043630000000e+04
-5.972549744076999923e+04
-5.973245619995000015e+04
-5.973023024445999908e+04
-5.972815863487000024e+04
-5.973108965842999896e+04
-5.973309710482999799e+04
-5.972973201333000179e+04
-5.973425453887000185e+04
-5.972700477893999778e+04
-5.973422771669000213e+04
-5.973050296782000078e+04
-5.972585058674999891e+04
-5.974562973161999980e+04
-5.972759374543999729e+04
-5.973758279655999650e+04
-5.973411740843000007e+04
-5.972416026001000137e+04
-5.973046161667999695e+04
-5.973478075199000159e+04
-5.973318181706999894e+04
-5.973827422366999963e+04
-5.973616031490000023e+04
-5.973490234274000250e+04
-5.973301389431000280e+04
-5.973078557349999755e+04
-5.971773903435999819e+04
-5.974447749940000358e+04
-5.973756299677999777e+04
-5.971303538464000303e+04
-5.973089757518000260e+04
-5.972634619319999911e+04
-5.972896329692000290e+04
-5.972660237380000035e+04
-5.972780504931000178e+04
-5.973463263413000095e+04
-5.972699827196999831e+04
-5.973324454651999986e+04
-5.973141294105999987e+04
-5.973498734215000150e+04
-5.973334291133999795e+04
-5.973194080584000039e+04
-5.973049617695000052e+04
-5.973391293151999707e+04
-5.973191009152000333e+04
-5.972531008866000047e+04
-5.973122097042999667e+04
-5.973326485333999881e+04
-5.972542222203999700e+04
-5.973757028294000338e+04
-5.972870868499000062e+04
-5.973050863673999993e+04
-5.972792978233000031e+04
-5.972755612364999979e+04
-5.973108315767000022e+04
-5.971616190158999962e+04
-5.973398869125000056e+04
-5.972665245765000145e+04
-5.974929208736999863e+04
-5.971359027986000001e+04
-5.972330178434000118e+04
-5.972082895609000116e+04
-5.973056782322000072e+04
-5.974117457584999647e+04
-5.973582540832000086e+04
-5.972965165900000284e+04
-5.972655222130999755e+04
-5.974038576592000027e+04
-5.973464527416999772e+04
-5.973195135352000216e+04
-5.972858413396999822e+04
-5.970720494946999679e+04
-5.973670691008999711e+04
-5.973464253127000120e+04
-5.974278064463000192e+04
-5.972568818235000072e+04
-5.973077118373000121e+04
-5.973753468047000206e+04
-5.973101737980000325e+04
-5.973911276327000087e+04
-5.973036380846999964e+04
-5.972601347053999780e+04
-5.973204504139000346e+04
-5.973029791549000220e+04
-5.973712966448999941e+04
-5.972651054620999639e+04
-5.973121227848999843e+04
-5.973431247738999809e+04
-5.973788611287999811e+04
-5.973023606355999800e+04
-5.973782262392000121e+04
-5.973263615015999676e+04
-5.972270802030999766e+04
-5.974179226028999983e+04
-5.972423556285999803e+04
-5.973644612628000323e+04
-5.973397944748999726e+04
-5.973054079723999894e+04
-5.973289035889999650e+04
-5.971775903559000290e+04
-5.972617339227000048e+04
-5.972896302650000143e+04
-5.973355780581999716e+04
-5.973042318112000066e+04
-5.972881127117999858e+04
-5.973265215514999727e+04
-5.971416767855000217e+04
-5.972757286952000140e+04
-5.972346086269999796e+04
-5.974934186718999990e+04
-5.973123342625999794e+04
-5.972838468075999845e+04
-5.975525309546000062e+04
-5.972610505938999995e+04
-5.973417465393000020e+04
-5.973917573834000359e+04
-5.973351762910000252e+04
-5.972523193565000111e+04
-5.972869398879999790e+04
-5.971886791994999658e+04
-5.972759395850000146e+04
-5.974332791821999854e+04
-5.971371955295999942e+04
-5.974131103809000342e+04
-5.973798386428999947e+04
-5.973814062757999636e+04
-5.973106914133000100e+04
-5.973408745464000094e+04
-5.973529417547999765e+04
-5.973873827085999801e+04
-5.972294685359000141e+04
-5.974052564580999751e+04
-5.973572581344000355e+04
-5.973177429067000048e+04
-5.972802150288000121e+04
-5.973949598787000286e+04
-5.973229989609999757e+04
-5.973639183154000057e+04
-5.972178241674000310e+04
-5.973696345558000030e+04
-5.972637688668000192e+04
-5.973457548048000172e+04
-5.973531506295000145e+04
-5.972771769618999679e+04
-5.971987223670000094e+04
-5.973410760704999848e+04
-5.973338528606999898e+04
-5.973621539224000298e+04
-5.972834471869000117e+04
-5.973699900021000212e+04
-5.973207866818000184e+04
-5.973016685994999716e+04
-5.973101633957000013e+04
-5.972998620574000233e+04
-5.973194158892999985e+04
-5.973492536734999885e+04
-5.973247318831000302e+04
-5.973833926026999688e+04
-5.975449498796000262e+04
-5.973067132834999938e+04
-5.974335363451999729e+04
-5.972773583034000330e+04
-5.976199595936999685e+04
-5.973556777608000266e+04
-5.974206662294000125e+04
-5.971815847601999849e+04
-5.973115343351999763e+04
-5.973379094518000056e+04
-5.974198142597999686e+04
-5.973662587481999799e+04
-5.973231620262999786e+04
-5.973872259687000042e+04
-5.973447175297999638e+04
-5.972732537386000331e+04
-5.973158847108000191e+04
-5.974121654242999648e+04
-5.973750119937999989e+04
-5.973041012269999919e+04
-5.972827814347999811e+04
-5.973057160301000113e+04
-5.973788335016999918e+04
-5.972538596544000029e+04
-5.972021897182999965e+04
-5.975130780555999809e+04
-5.972776861284000188e+04
-5.973150242497999716e+04
-5.973381187766999938e+04
-5.973418255292999675e+04
-5.973008611206999922e+04
-5.973809977436000190e+04
-5.972920616860999871e+04
-5.974177333507000003e+04
-5.973755546869999671e+04
-5.973927100431000144e+04
-5.972640476386000228e+04
-5.965594962330000271e+04
-5.973544556716999796e+04
-5.973219403861000319e+04
-5.974142251342999953e+04
-5.973211270872000023e+04
-5.973525608887000271e+04
-5.972995962534999853e+04
-5.974951724100000138e+04
-5.973290745479999896e+04
-5.973092684623000241e+04
-5.973475934322000103e+04
-5.973760522101999959e+04
-5.973713559610999800e+04
-5.972497430151000299e+04
-5.975512847889999830e+04
-5.974295917036999890e+04
-5.972525508639000327e+04
-5.973614453138999670e+04
-5.974050753968999925e+04
-5.973045895646999998e+04
-5.973107376186000329e+04
-5.972833318044000043e+04
-5.973916097864999756e+04
-5.973447774757000298e+04
-5.973758901239000261e+04
-5.972894362797999929e+04
-5.971987467789000220e+04
-5.973786658146999980e+04
-5.972872905208999873e+04
-5.972554628788000264e+04
-5.974187073740999767e+04
-5.968476192751999770e+04
-5.973000018424999871e+04
-5.973121780328000023e+04
-5.973187687100000039e+04
-5.973976424884999869e+04
-5.970746884116000001e+04
-5.973203297128000122e+04
-5.973771891866000078e+04
-5.973262876993999816e+04
-5.972528409516000102e+04
-5.973697778937999828e+04
-5.973473714561000088e+04
-5.973531709717000194e+04
-5.972917692070000339e+04
-5.972521152759999677e+04
-5.972791796743000305e+04
-5.973502424425999925e+04
-5.970188598721000017e+04
-5.972579982333000225e+04
-5.972204740653000044e+04
-5.972717310846000328e+04
-5.974246412771000178e+04
-5.973129462562999834e+04
-5.974195034540000051e+04
-5.973614726261000033e+04
-5.973131514122000226e+04
-5.973034745138000289e+04
-5.973457025869999779e+04
-5.972830215737999970e+04
-5.973034146565999981e+04
-5.972906571329000144e+04
-5.973710486095999659e+04
-5.973880116317999637e+04
-5.973478435185999842e+04
-5.973065416330000153e+04
-5.972870559345000220e+04
-5.973937227888999769e+04
-5.973296468514000298e+04
-5.970410847132000345e+04
-5.972277666327000043e+04
-5.974093211213999894e+04
-5.974472028149000107e+04
-5.973191077711999969e+04
-5.973092778967999766e+04
-5.972650715001999924e+04
-5.975073979751000297e+04
-5.973010055453999666e+04
-5.972776819036999950e+04
-5.973850616003000323e+04
-5.972638317891000042e+04
-5.973520540061000065e+04
-5.972551162145000126e+04
-5.972446699873999751e+04
-5.973597401615999843e+04
-5.972718485353999858e+04
-5.973263133404000109e+04
-5.972918988171000092e+04
-5.972636565536999842e+04
-5.971908707947999937e+04
-5.972858952537000005e+04
-5.973276505658999668e+04
-5.972455011817999912e+04
-5.973476783561999764e+04
-5.973510853247000341e+04
-5.973324207025999931e+04
-5.973162808868999855e+04
-5.973847567520000302e+04
-5.973185199386000022e+04
-5.972993767073000345e+04
-5.973442975239999942e+04
-5.973058961067999917e+04
-5.972579796050999721e+04
-5.973189057460999902e+04
-5.972568281287999707e+04
-5.975081749192000279e+04
-5.972940064438000263e+04
-5.973885628310999891e+04
-5.973819879165000020e+04
-5.973048160887000267e+04
-5.973018835951000074e+04
-5.971976526672000182e+04
-5.972955110135999712e+04
-5.973219281048000266e+04
-5.972544019911000214e+04
-5.973905060883000260e+04
-5.974304620075999992e+04
-5.972671510650999699e+04
-5.973250701565000054e+04
-5.973756719270000031e+04
-5.972314184294000006e+04
-5.974822864980000304e+04
-5.972843520547999651e+04
-5.973621481944999687e+04
-5.972924996844000270e+04
-5.973592669985999964e+04
-5.974714731410000240e+04
-5.973805962855999678e+04
-5.973197094903000107e+04
-5.973674982810999791e+04
-5.973340831517000333e+04
-5.974198559982999723e+04
-5.973214270981000300e+04
-5.973169772139000270e+04
-5.974359446156000195e+04
-5.972686965801000042e+04
-5.973675979250000091e+04
-5.973246898799000337e+04
-5.972634927829999651e+04
-5.973052404473000206e+04
-5.973552744590999646e+04
-5.973122557026999857e+04
-5.971525731800000358e+04
-5.973084158978999767e+04
-5.973017447817000357e+04
-5.972179750834999868e+04
-5.973563818300000275e+04
-5.973754164147999836e+04
-5.973802456202000030e+04
-5.974305322853999678e+04
-5.972400471637000010e+04
-5.973635018965999916e+04
-5.973553699914999743e+04
-5.973527507932000299e+04
-5.972889244280999992e+04
-5.973142414216000179e+04
-5.972717925403000118e+04
-5.973238871769000252e+04
-5.973091842580999946e+04
-5.973251032578000013e+04
-5.973334375184999953e+04
-5.973480051385999832e+04
-5.972988350412000000e+04
-5.973287324955000076e+04
-5.973692903213999671e+04
-5.972712041424999916e+04
-5.973819235314999969e+04
-5.973967023458999756e+04
-5.973479458493999846e+04
-5.972515545579999889e+04
-5.973096887068000069e+04
-5.973266089395999734e+04
-5.972299990783000248e+04
-5.973138732999000058e+04
-5.973035612394000054e+04
-5.974195682831000158e+04
-5.973313537691999954e+04
-5.974559017740999843e+04
-5.973274845417000324e+04
-5.973343086316999688e+04
-5.973875331544000073e+04
-5.973205674089999957e+04
-5.973105042932999640e+04
-5.972638321310000174e+04
-5.973542606445999991e+04
-5.972748199316999671e+04
-5.974561058138999942e+04
-5.974140934097999707e+04
-5.972600158406000264e+04
-5.974977057826999953e+04
-5.973287674921000144e+04
-5.972724615191000339e+04
-5.973950835352000286e+04
-5.979604731357000128e+04
-5.973090880188000301e+04
-5.973001965929000289e+04
-5.973404445919999853e+04
-5.974482553115000337e+04
-5.974083396791000268e+04
-5.973352243250000174e+04
-5.973353928374999668e+04
-5.972952916523000022e+04
-5.973638978633999795e+04
-5.973000523024999711e+04
-5.973711337900999933e+04
-5.972419367559000239e+04
-5.973520474229999672e+04
-5.973582390288999886e+04
-5.974631375249999837e+04
-5.974195759885999723e+04
-5.973059855647999939e+04
-5.973878906164000364e+04
-5.972562659079999867e+04
-5.973246619662999728e+04
-5.972723788786999648e+04
-5.972857131407999987e+04
-5.973258845321999979e+04
-5.972602230768000300e+04
-5.974622758949000126e+04
-5.972686786518999725e+04
-5.971649466455999936e+04
-5.972795125399999961e+04
-5.973003013384000224e+04
-5.973523391085999901e+04
-5.972631943229999888e+04
-5.972458311295000021e+04
-5.973588804055000219e+04
-5.974549623158000031e+04
-5.974005033147000358e+04
-5.973604015315000288e+04
-5.974816189745000156e+04
-5.974541346951999731e+04
-5.972558276394000131e+04
-5.977361606877000304e+04
-5.973324013430000196e+04
-5.973215835795999737e+04
-5.972583081698000024e+04
-5.972890925856999820e+04
-5.973352810273000068e+04
-5.973065471870000329e+04
-5.973344201020000037e+04
-5.973463904540999647e+04
-5.973967036222999741e+04
-5.969600283692999801e+04
-5.973060938480000186e+04
-5.972813889200999984e+04
-5.972194994679000229e+04
-5.972877341046000220e+04
-5.973698271501999989e+04
-5.972325822247999895e+04
-5.973447909818000335e+04
-5.973190326199999981e+04
-5.973301545580999664e+04
-5.973326132350999978e+04
-5.970858659235000232e+04
-5.973534051385000203e+04
-5.972552663880000182e+04
-5.972664398631000222e+04
-5.973484724396999809e+04
-5.974344216356000106e+04
-5.973796889709999959e+04
-5.972933340157000202e+04
-5.973675660023999808e+04
-5.974840918912000052e+04
-5.973853440399999818e+04
-5.971280076392999763e+04
-5.972758668995000335e+04
-5.973219403954999871e+04
-5.972744716286999756e+04
-5.973812902207000297e+04
-5.973117109517999779e+04
-5.974278930098999990e+04
-5.972834478071000194e+04
-5.971656998818000284e+04
-5.973028146035999816e+04
-5.973288977349999914e+04
-5.972935854762000235e+04
-5.973072077662000083e+04
-5.973615237707999768e+04
-5.972521495942000183e+04
-5.973282083509999939e+04
-5.972296779747999972e+04
-5.973033395049999672e+04
-5.970930551828999887e+04
-5.973059247242000129e+04
-5.973044993285999954e+04
-5.973637449444000231e+04
-5.973177726791000168e+04
-5.973482404238000163e+04
-5.973762552285999845e+04
-5.973209899043999758e+04
-5.973272895060999872e+04
-5.972892505905000144e+04
-5.973224556868999935e+04
-5.973783771780999814e+04
-5.973553485502999683e+04
-5.973182380795000063e+04
-5.975507215334999637e+04
-5.973009818483999697e+04
-5.973782976952999888e+04
-5.971399758447000204e+04
-5.973864058803999797e+04
-5.973749688235999929e+04
-5.973672688675000245e+04
-5.973572254627000075e+04
-5.972959586958999716e+04
-5.973419708281000203e+04
-5.971979351029999816e+04
-5.973996173986999929e+04
-5.972931489899999724e+04
-5.968789077179999731e+04
-5.972412529828999686e+04
-5.972446825679999893e+04
-5.972349656777000200e+04
-5.973318356923000101e+04
-5.973401365606999752e+04
-5.974625219376000314e+04
-5.974126168367000355e+04
-5.972397433107999677e+04
-5.973043692046999786e+04
-5.972803976333999890e+04
-5.973681069341999682e+04
-5.974118779691000236e+04
-5.972732979506000265e+04
-5.973427177372999722e+04
-5.974042757828000322e+04
-5.973827429472999938e+04
-5.973672930440000346e+04
-5.973152061859000241e+04
-5.973028138046999811e+04
-5.973086222958000144e+04
-5.972864101399000356e+04
-5.973513117025999964e+04
-5.972630342211999960e+04
-5.973057841876000020e+04
-5.972297930978999648e+04
-5.973963554838999698e+04
-5.972792875833000289e+04
-5.973443120610000187e+04
-5.973130751222000254e+04
-5.973300166781999724e+04
-5.973904878050999832e+04
-5.972884362069000053e+04
-5.973104664559999947e+04
-5.970184846357000060e+04
-5.973958394617000158e+04
-5.973491626758000348e+04
-5.972489586126000358e+04
-5.974231623548000061e+04
-5.973574898288000259e+04
-5.973499538467000093e+04
-5.971162325340000098e+04
-5.973853334328000346e+04
-5.973824283663000097e+04
-5.974032816311000352e+04
-5.973355574478999915e+04
-5.972821282624999731e+04
-5.976226060334999784e+04
-5.972886583209999662e+04
-5.973517642147999868e+04
-5.973316334297000139e+04
-5.974524169734000316e+04
-5.972570310990000144e+04
-5.972939521935000084e+04
-5.973522625446999882e+04
-5.973458539900000324e+04
-5.973792882516000100e+04
-5.974283768183999928e+04
-5.975735046652000165e+04
-5.973544625850999728e+04
-5.971543938194999646e+04
-5.973577902904999792e+04
-5.972854792532000283e+04
-5.973428609450999647e+04
-5.968511894703999860e+04
-5.973097193374000199e+04
-5.973382968496999820e+04
-5.972762327014999755e+04
-5.972295657976999792e+04
-5.972886200590999943e+04
-5.973919337118999829e+04
-5.973963462216000335e+04
-5.974214830706000066e+04
-5.972943873468999664e+04
-5.973346475166000164e+04
-5.973373687285000051e+04
-5.973117153492000216e+04
-5.973251176095999836e+04
-5.973416842506999819e+04
-5.972933954226999776e+04
-5.972477539974999672e+04
-5.972726474698999664e+04
-5.972372304825000174e+04
-5.973163896592999663e+04
-5.972674079494999751e+04
-5.973174473294999916e+04
-5.974223125487999641e+04
-5.973169338299000083e+04
-5.973169458493999991e+04
-5.972898970119000296e+04
-5.973781212699000025e+04
-5.973334446264000144e+04
-5.972352758095000172e+04
-5.972807093406999775e+04
-5.972481270555999799e+04
-5.971984253844000341e+04
-5.973383188756999880e+04
-5.972062780901999940e+04
-5.972369412174000172e+04
-5.974234033531999739e+04
-5.973158931904000201e+04
-5.973184027151999908e+04
-5.973262408675000188e+04
-5.973054037894000066e+04
-5.969713394076999975e+04
-5.973411051672999747e+04
-5.973143937557999743e+04
-5.972916835693000030e+04
-5.974217509756000072e+04
-5.973764806107000186e+04
-5.972182624503000261e+04
-5.972752207862000068e+04
-5.973070282500000030e+04
-5.973853439901999809e+04
-5.973819901594000112e+04
-5.973112463828999898e+04
-5.972371297865000088e+04
-5.972863671754000097e+04
-5.974247440549000021e+04
-5.973100570311000047e+04
-5.973300027191000117e+04
-5.973499872009999672e+04
-5.973163241913999809e+04
-5.973260683805000008e+04
-5.972872320580000087e+04
-5.973522707988999900e+04
-5.973451440426000045e+04
-5.973851592027000152e+04
-5.973639839755999856e+04
-5.973439852144000179e+04
-5.973339920936000271e+04
-5.973801369112000248e+04
-5.973732870264999656e+04
-5.972704582405999827e+04
-5.973587656776999938e+04
-5.973660841080999671e+04
-5.973193840548000298e+04
-5.972869904887000303e+04
-5.973976809658999991e+04
-5.973734593285000301e+04
-5.974073327260999940e+04
-5.972026629505999881e+04
-5.973573709399999643e+04
-5.972715405263000139e+04
-5.972631665624999732e+04
-5.975120055308999872e+04
-5.973738288753000234e+04
-5.973577179145999980e+04
-5.973281368266000209e+04
-5.973176179481999861e+04
-5.973180182031999720e+04
-5.973558440177999728e+04
-5.972105580809999810e+04
-5.972702751982000336e+04
-5.973243696323999757e+04
-5.973451457146999746e+04
-5.972934139124999638e+04
-5.973081633167999826e+04
-5.973172095165000064e+04
-5.972728684608999902e+04
-5.973296181531999900e+04
-5.973768630131999817e+04
-5.974214584530999855e+04
-5.968882826834000298e+04
-5.973246182470000349e+04
-5.972830199163000361e+04
-5.973191196541999670e+04
-5.973932046527000057e+04
-5.973989002725000319e+04
-5.973051514403000328e+04
-5.972261048157999903e+04
-5.975316543192999961e+04
-5.973269549946999905e+04
-5.973488136526999733e+04
-5.973575746986000013e+04
-5.973196838256000046e+04
-5.972801897391000239e+04
-5.971357836623000185e+04
-5.974025583580999955e+04
-5.974046350967000035e+04
-5.973287756020000234e+04
-5.973091151089000050e+04
-5.973213862045000133e+04
-5.973084053038000275e+04
-5.973546829697000067e+04
-5.972747216515000036e+04
-5.972990462582000328e+04
-5.972922804082000221e+04
-5.973091269889999967e+04
-5.972671221127000172e+04
-5.972795756819999951e+04
-5.973512328819999675e+04
-5.972813118094999663e+04
-5.973408904119000363e+04
-5.971816813720000209e+04
-5.973761970829000347e+04
-5.973294457829999737e+04
-5.973462227533999976e+04
-5.972923404401000153e+04
-5.973845069864000106e+04
-5.975154001866999897e+04
-5.973147188890999678e+04
-5.973200682347999827e+04
-5.972906296070000099e+04
-5.973090151868999965e+04
-5.972957064648999949e+04
-5.973402703681999992e+04
-5.973227314319000288e+04
-5.972569445401000121e+04
-5.972679755132999708e+04
-5.973577844329999789e+04
-5.973132557806999830e+04
-5.974549331129000348e+04
-5.972471270909000305e+04
-5.971460766041999887e+04
-5.972414786718999676e+04
-5.972752121985000122e+04
-5.973801519222999923e+04
-5.972967590835999727e+04
-5.973313970939999854e+04
-5.975014009788999829e+04
-5.972747369775999687e+04
-5.973090795850999712e+04
-5.972953328886999952e+04
-5.973008649311999761e+04
-5.973360569160000159e+04
-5.973644130104999931e+04
-5.972692257612999674e+04
-5.973715800052999839e+04
-5.972945212237999658e+04
-5.973740969929000130e+04
-5.972318863433999650e+04
-5.972947788133999711e+04
-5.973333960497000226e+04
-5.973016829015000258e+04
-5.972273962274999940e+04
-5.973795585446999758e+04
-5.972954034795999905e+04
-5.974050313025999640e+04
-5.973315281246999803e+04
-5.974603660536999814e+04
-5.974350986926999758e+04
-5.973097133377000137e+04
-5.972894824785999663e+04
-5.974172239969999646e+04
-5.973151248271000077e+04
-5.975677032263000001e+04
-5.972898001554000075e+04
-5.973131581621999794e+04
-5.973743402990000322e+04
-5.973023963081999682e+04
-5.974064368216000003e+04
-5.973529545625000173e+04
-5.973748706911999761e+04
-5.974617797528999654e+04
-5.971804053328000009e+04
-5.972779106150999723e+04
-5.973119874223000079e+04
-5.972196893776999786e+04
-5.973979818704000354e+04
-5.973321365884000261e+04
-5.973203433224999753e+04
-5.973489063598999928e+04
-5.973153461129999778e+04
-5.973654632814999786e+04
-5.973918034787000215e+04
-5.973133981017999758e+04
-5.975451971652999782e+04
-5.973257401370000298e+04
-5.976590655428000173e+04
-5.972378253103000316e+04
-5.974598765206000098e+04
-5.975681612498000322e+04
-5.973579935051999928e+04
-5.974178870196999924e+04
-5.972918264628000179e+04
-5.972301079777999985e+04
-5.973900880101000075e+04
-5.973114927395999985e+04
-5.972994625888000155e+04
-5.972941939324999839e+04
-5.973211546755999734e+04
-5.972856871890000184e+04
-5.972802612476999639e+04
-5.974830338096000196e+04
-5.973033041349999985e+04
-5.972711743004999880e+04
-5.973224947380999947e+04
-5.973248914042999968e+04
-5.973497439475000283e+04
-5.973359426802000235e+04
-5.971436739721999766e+04
-5.972912264690000302e+04
-5.972886658447999798e+04
-5.973790097771999717e+04
-5.972893374023999786e+04
-5.973467488585999672e+04
-5.973319042168000306e+04
-5.972996536752999964e+04
-5.973282663139999931e+04
-5.972905994231999648e+04
-5.973340397130999918e+04
-5.972745224363000307e+04
-5.973862250158000097e+04
-5.973160107856000104e+04
-5.973547363713000232e+04
-5.972814789151999867e+04
-5.973048992731000180e+04
-5.973329546437999670e+04
-5.973052377937999699e+04
-5.973717907389999891e+04
-5.973112120057999709e+04
-5.973932027286999801e+04
-5.973058322955999756e+04
-5.973108607707999909e+04
-5.973400085931999638e+04
-5.972102150095999968e+04
-5.973214891334000276e+04
-5.973783334163999825e+04
-5.972702422479999950e+04
-5.975868537487999856e+04
-5.974614180638999824e+04
-5.973385850491000019e+04
-5.974251671948999865e+04
-5.973244898662000196e+04
-5.972876540501000272e+04
-5.972118675908000296e+04
-5.973804532643000130e+04
-5.972544992410000123e+04
-5.972531331147000310e+04
-5.973264977840000211e+04
-5.973128489524000179e+04
-5.973122878525999840e+04
-5.973947391657999833e+04
-5.973163975989999744e+04
-5.973154086221999751e+04
-5.973220601650999743e+04
-5.972254395865999686e+04
-5.973011841032999655e+04
-5.973811575712000194e+04
-5.974062288416000229e+04
-5.972809334921000118e+04
-5.972632468371000141e+04
-5.973411204059999727e+04
-5.973002717092999956e+04
-5.973464184466000006e+04
-5.973706458325000131e+04
-5.973795568417000322e+04
-5.972273379517000285e+04
-5.973338164264999796e+04
-5.973153906234000169e+04
-5.972380947808999917e+04
-5.972936558763000357e+04
-5.972073076746999868e+04
-5.972012099637000210e+04
-5.973306144402999780e+04
-5.972915667745999963e+04
-5.972563325841999904e+04
-5.973249042880000343e+04
-5.973410230676000356e+04
-5.974261104131000320e+04
-5.973677926845000184e+04
-5.973723941652000212e+04
-5.972840696418999869e+04
-5.973619858694999857e+04
-5.973847796234000270e+04
-5.973701120072999765e+04
-5.972761294410000119e+04
-5.973215764456000034e+04
-5.973840888337000069e+04
-5.973480580483999802e+04
-5.974054422548999719e+04
-5.973073976586999925e+04
-5.971993325021999772e+04
-5.973152423825000005e+04
-5.973764159821999783e+04
-5.972882611167999858e+04
-5.973153423022999777e+04
-5.973844784565999726e+04
-5.973115277870999853e+04
-5.972975513646999752e+04
-5.972679816497000138e+04
-5.973093772010999965e+04
-5.973097134335000010e+04
-5.973685933579999983e+04
-5.970857657199999812e+04
-5.972803374859000178e+04
-5.972869397616999777e+04
-5.975711538244000258e+04
-5.973666496406999795e+04
-5.972380947806999757e+04
-5.973231592937999812e+04
-5.972923715878000075e+04
-5.973470903520000138e+04
-5.972066867110000021e+04
-5.973002612942000269e+04
-5.973499285912999767e+04
-5.974167628141999739e+04
-5.973381440191999718e+04
-5.972598674223999842e+04
-5.973843089198999951e+04
-5.974420672544000263e+04
-5.972876635697000165e+04
-5.973027161095000338e+04
-5.973454034610999952e+04
-5.973409440123000240e+04
-5.972543039233000309e+04
-5.973053706357000192e+04
-5.976398502518000168e+04
-5.973714903626000159e+04
-5.972634820189000311e+04
-5.973628438813999674e+04
-5.973799267090999638e+04
-5.972855413995999697e+04
-5.972960988981000264e+04
-5.973136727262999921e+04
-5.973970198258999881e+04
-5.972984059544999764e+04
-5.973668142408000131e+04
-5.973085254415000236e+04
-5.973233352652000031e+04
-5.971658988913000212e+04
-5.973130287679000321e+04
-5.974438662564999686e+04
-5.972480665127999964e+04
-5.973299005598999793e+04
-5.973028837444000237e+04
-5.974267354614999931e+04
-5.972719034714999725e+04
-5.973796635280999908e+04
-5.972536533446000249e+04
-5.973595637199000339e+04
-5.973621369193000282e+04
-5.973138227886000095e+04
-5.973212644639000064e+04
-5.973285209983999812e+04
-5.974084994279000239e+04
-5.972713092555999901e+04
-5.972741169056000217e+04
-5.973798080826999649e+04
-5.973279262257999653e+04
-5.973766807328999857e+04
-5.973401085345000320e+04
-5.970206398230999912e+04
-5.973862358464000135e+04
-5.972847077849000198e+04
-5.972908979492999788e+04
-5.972592395445000147e+04
-5.973710285584999656e+04
-5.969431808342000295e+04
-5.973084507909000240e+04
-5.973038019327999791e+04
-5.973619178981999721e+04
-5.974611732533000031e+04
-5.973718791190000047e+04
-5.964845169534000161e+04
-5.973355646467999759e+04
-5.974188280615999975e+04
-5.972772210305000044e+04
-5.973091163534000225e+04
-5.971980883518000337e+04
-5.973024814807999792e+04
-5.973877652633000253e+04
-5.973361529333000362e+04
-5.972996981648999645e+04
-5.973921227989000181e+04
-5.973333853513000213e+04
-5.972472104802999820e+04
-5.973963261398000031e+04
-5.973320206578000216e+04
-5.972690334422999877e+04
-5.970965149443999690e+04
-5.973372789300000295e+04
-5.972825289678000263e+04
-5.975179081263999979e+04
-5.973416157840999949e+04
-5.973497717304999969e+04
-5.972803285748999770e+04
-5.971956077155999810e+04
-5.971313637179999932e+04
-5.973588109912000073e+04
-5.973415558472999692e+04
-5.972834999775000324e+04
-5.972265953109999828e+04
-5.973900599569999758e+04
-5.973831981819000066e+04
-5.973307437106999714e+04
-5.974466262971000106e+04
-5.968620333596999990e+04
-5.973000422699999763e+04
-5.972214717723999638e+04
-5.972824826629999734e+04
-5.973453930591000244e+04
-5.974127072611999756e+04
-5.974332951540000067e+04
-5.973965342598000279e+04
-5.973726610326999798e+04
-5.973597699573000136e+04
-5.973490602404999663e+04
-5.974026327683000272e+04
-5.972899701417000324e+04
-5.973257604569000250e+04
-5.974280501833000017e+04
-5.973217036240000016e+04
-5.974580707770000299e+04
-5.972747391295999842e+04
-5.971503403673999856e+04
-5.973131113729000208e+04
-5.974355786310000258e+04
-5.972310505756999919e+04
-5.973415181173999736e+04
-5.973640681328000210e+04
-5.973061226388999785e+04
-5.972878158702999644e+04
-5.973830043111999839e+04
-5.972752143146999879e+04
-5.973137124932000006e+04
-5.973307754263999959e+04
-5.973229628034000052e+04
-5.973501308237999910e+04
-5.973059567853000044e+04
-5.973511502795999695e+04
-5.972072277949999989e+04
-5.972910517136999988e+04
-5.972586795831999916e+04
-5.972800415321000037e+04
-5.973271760866999830e+04
-5.972534682962000079e+04
-5.973153591951000271e+04
-5.973978134275000048e+04
-5.974696112110000104e+04
-5.973577154826000333e+04
-5.973872019048999937e+04
-5.972744949035000172e+04
-5.973834997141000349e+04
-5.973012976175999938e+04
-5.975596780364000006e+04
-5.973089158555999893e+04
-5.973055217077999987e+04
-5.973242999186999805e+04
-5.972538057688999834e+04
-5.971744892226000229e+04
-5.976535466217000067e+04
-5.972158856501999981e+04
-5.972883699627999886e+04
-5.971943432688000030e+04
-5.974004994969999825e+04
-5.974497479870999814e+04
-5.972854782859000261e+04
-5.973819954847000190e+04
-5.972789711294000153e+04
-5.973219844782000291e+04
-5.973025401833999786e+04
-5.972207032276999962e+04
-5.972869697176999762e+04
-5.972325395546000072e+04
-5.974550410291000298e+04
-5.970896760075999919e+04
-5.973163849297999695e+04
-5.971918794804999925e+04
-5.973248808802999702e+04
-5.972918018786999892e+04
-5.972818836785999883e+04
-5.972940570422999735e+04
-5.972516770143999747e+04
-5.973230775064000045e+04
-5.973281224764000217e+04
-5.973286394658999779e+04
-5.973177200643999822e+04
-5.973510431168999639e+04
-5.973782037172000128e+04
-5.974619951291000325e+04
-5.972751775503999670e+04
-5.974005422564000037e+04
-5.973017570166999940e+04
-5.972939956150999933e+04
-5.973124468824000360e+04
-5.973035729521000030e+04
-5.968507917941999767e+04
-5.974164517979999800e+04
-5.973041567054999905e+04
-5.972925053859999753e+04
-5.974134524745000090e+04
-5.973989117678999901e+04
-5.973050473813999997e+04
-5.972820908084000257e+04
-5.972992394736999995e+04
-5.972682999851000204e+04
-5.972385286939999787e+04
-5.973204093616000318e+04
-5.972543188820999785e+04
-5.972470584051000333e+04
-5.973415410133000114e+04
-5.974170764793999842e+04
-5.973207062305999716e+04
-5.973243200243000319e+04
-5.971781835061000311e+04
-5.973406797958999960e+04
-5.972841813859999820e+04
-5.973893967942000018e+04
-5.973659949578999658e+04
-5.973038801062000130e+04
-5.972689457923999726e+04
-5.972553024389000348e+04
-5.973115176786999655e+04
-5.971486663365000277e+04
-5.973126899373000197e+04
-5.972827745229999709e+04
-5.972843335287999798e+04
-5.975678928964999795e+04
-5.973786480560000200e+04
-5.973072497994999867e+04
-5.973626108388000284e+04
-5.973798936824999691e+04
-5.972606932342000073e+04
-5.974437939575999917e+04
-5.973678584478000266e+04
-5.973346457566000026e+04
-5.973619061890999728e+04
-5.973109357756000099e+04
-5.972953994496999803e+04
-5.973102310461000161e+04
-5.973336462054999720e+04
-5.972288307008000265e+04
-5.973063585974000307e+04
-5.972866466696000134e+04
-5.971522112170999753e+04
-5.973026058637999813e+04
-5.971236391389000346e+04
-5.972151400812000065e+04
-5.973641000014000019e+04
-5.972459397039000032e+04
-5.974224689955999929e+04
-5.973022434603999864e+04